
     Program PWSCF v.6.6 starts on 26Jun2021 at  8:48: 1 

     This program is part of the open-source Quantum ESPRESSO suite
     for quantum simulation of materials; please cite
         "P. Giannozzi et al., J. Phys.:Condens. Matter 21 395502 (2009);
         "P. Giannozzi et al., J. Phys.:Condens. Matter 29 465901 (2017);
          URL http://www.quantum-espresso.org", 
     in publications or presentations arising from this work. More details at
     http://www.quantum-espresso.org/quote

     Parallel version (MPI & OpenMP), running on      96 processor cores
     Number of MPI processes:                48
     Threads/MPI process:                     2

     MPI processes distributed on     2 nodes
     R & G space division:  proc/nbgrp/npool/nimage =      48
     wavefunctions fft division:  Y-proc x Z-proc =       2     24
     wavefunctions fft division:  task group distribution
                                  #TG    x Z-proc =       2     24
     Fft bands division:     nmany     =       1
     Reading input from _008.in

     Current dimensions of program PWSCF are:
     Max number of different atomic species (ntypx) = 10
     Max number of k-points (npk) =  40000
     Max angular momentum in pseudopotentials (lmaxx) =  3
     file O.pbe-n-kjpaw_psl.0.1.UPF: wavefunction(s)  2P renormalized

     gamma-point specific algorithms are used

     Subspace diagonalization in iterative solution of the eigenvalue problem:
     one sub-group per band group will be used
     ELPA distributed-memory algorithm (size of sub-group:  3*  3 procs)

 
     Parallelization info
     --------------------
     sticks:   dense  smooth     PW     G-vecs:    dense   smooth      PW
     Min         914     456    113               144426    51050    6386
     Max         918     460    116               144450    51094    6406
     Sum       43981   21985   5497              6933065  2451559  306907
 


     bravais-lattice index     =            1
     lattice parameter (alat)  =      33.9244  a.u.
     unit-cell volume          =   39042.2753 (a.u.)^3
     number of atoms/cell      =          228
     number of atomic types    =            2
     number of electrons       =       608.00
     number of Kohn-Sham states=          304
     kinetic-energy cutoff     =      60.0000  Ry
     charge density cutoff     =     480.0000  Ry
     convergence threshold     =      1.0E-10
     mixing beta               =       0.7000
     number of iterations used =            8  plain     mixing
     Exchange-correlation= SLA PW PBX PBC
                           (   1   4   3   4   0   0   0)

     celldm(1)=  33.924363  celldm(2)=   0.000000  celldm(3)=   0.000000
     celldm(4)=   0.000000  celldm(5)=   0.000000  celldm(6)=   0.000000

     crystal axes: (cart. coord. in units of alat)
               a(1) = (   1.000000   0.000000   0.000000 )  
               a(2) = (   0.000000   1.000000   0.000000 )  
               a(3) = (   0.000000   0.000000   1.000000 )  

     reciprocal axes: (cart. coord. in units 2 pi/alat)
               b(1) = (  1.000000  0.000000  0.000000 )  
               b(2) = (  0.000000  1.000000  0.000000 )  
               b(3) = (  0.000000  0.000000  1.000000 )  


     PseudoPot. # 1 for H  read from file:
     ./H.pbe-rrkjus_psl.1.0.0.UPF
     MD5 check sum: f52b6d4d1c606e5624b1dc7b2218f220
     Pseudo is Ultrasoft, Zval =  1.0
     Generated using "atomic" code by A. Dal Corso v.5.1
     Using radial grid of  929 points,  2 beta functions with: 
                l(1) =   0
                l(2) =   0
     Q(r) pseudized with 0 coefficients 


     PseudoPot. # 2 for O  read from file:
     ./O.pbe-n-kjpaw_psl.0.1.UPF
     MD5 check sum: 0234752ac141de4415c5fc33072bef88
     Pseudo is Projector augmented-wave + core cor, Zval =  6.0
     Generated using "atomic" code by A. Dal Corso v.5.0.99 svn rev. 10869
     Shape of augmentation charge: BESSEL
     Using radial grid of 1095 points,  4 beta functions with: 
                l(1) =   0
                l(2) =   0
                l(3) =   1
                l(4) =   1
     Q(r) pseudized with 0 coefficients 


     atomic species   valence    mass     pseudopotential
        H              1.00     1.00000     H ( 1.00)
        O              6.00    16.00000     O ( 1.00)

     No symmetry found


                                    s                        frac. trans.

      isym =  1     identity                                     

 cryst.   s( 1) = (     1          0          0      )
                  (     0          1          0      )
                  (     0          0          1      )

 cart.    s( 1) = (  1.0000000  0.0000000  0.0000000 )
                  (  0.0000000  1.0000000  0.0000000 )
                  (  0.0000000  0.0000000  1.0000000 )


     point group C_1 (1)    
     there are  1 classes
     the character table:

       E    
A      1.00

     the symmetry operations in each class and the name of the first element:

     E        1
          identity                                               

   Cartesian axes

     site n.     atom                  positions (alat units)
         1           O   tau(   1) = (  -0.2013436   0.3069207   0.2097939  )
         2           H   tau(   2) = (  -0.1738648   0.2623574   0.2288447  )
         3           H   tau(   3) = (  -0.1903197   0.3137723   0.1556495  )
         4           O   tau(   4) = (   0.0689494   0.1962923   0.3103398  )
         5           H   tau(   5) = (   0.1057141   0.2154545   0.3474944  )
         6           H   tau(   6) = (   0.0956317   0.1669920   0.2712355  )
         7           O   tau(   7) = (  -0.3814572   0.0804278   0.1704668  )
         8           H   tau(   8) = (  -0.3759314   0.1289461   0.1973162  )
         9           H   tau(   9) = (  -0.3687678   0.0874465   0.1166566  )
        10           O   tau(  10) = (   0.2094352   0.1811965  -0.2485116  )
        11           H   tau(  11) = (   0.2599588   0.1822549  -0.2249877  )
        12           H   tau(  12) = (   0.1791321   0.1404211  -0.2256228  )
        13           O   tau(  13) = (   0.0887244  -0.1510673  -0.3942112  )
        14           H   tau(  14) = (   0.0397605  -0.1392747  -0.3703754  )
        15           H   tau(  15) = (   0.0908411  -0.2053788  -0.4063993  )
        16           O   tau(  16) = (  -0.1129857   0.1842602   0.0383924  )
        17           H   tau(  17) = (  -0.0987979   0.1854300  -0.0154846  )
        18           H   tau(  18) = (  -0.1519842   0.1452674   0.0464138  )
        19           O   tau(  19) = (   0.1901615   0.0255593   0.3698318  )
        20           H   tau(  20) = (   0.1987957   0.0031829   0.3195867  )
        21           H   tau(  21) = (   0.1882676   0.0810406   0.3654311  )
        22           O   tau(  22) = (   0.0666656   0.2863659  -0.0610561  )
        23           H   tau(  23) = (   0.0880559   0.2535004  -0.0215174  )
        24           H   tau(  24) = (   0.1073295   0.3167803  -0.0839505  )
        25           O   tau(  25) = (   0.0413759   0.0256150  -0.2359225  )
        26           H   tau(  26) = (   0.0885016   0.0331907  -0.2072516  )
        27           H   tau(  27) = (  -0.0007531   0.0506261  -0.2093906  )
        28           O   tau(  28) = (  -0.0049142   0.0627139   0.0615653  )
        29           H   tau(  29) = (  -0.0319196   0.0149086   0.0521513  )
        30           H   tau(  30) = (  -0.0418126   0.1031551   0.0717034  )
        31           O   tau(  31) = (  -0.0611754  -0.0666756  -0.1319452  )
        32           H   tau(  32) = (  -0.0066912  -0.0591722  -0.1231105  )
        33           H   tau(  33) = (  -0.0824655  -0.0213157  -0.1562767  )
        34           O   tau(  34) = (   0.0470577   0.0253365   0.2010484  )
        35           H   tau(  35) = (   0.0421000   0.0511832   0.1519730  )
        36           H   tau(  36) = (   0.0112957  -0.0172995   0.2032765  )
        37           O   tau(  37) = (  -0.1020455  -0.0664138   0.0173362  )
        38           H   tau(  38) = (  -0.1520399  -0.0462656   0.0313737  )
        39           H   tau(  39) = (  -0.0951549  -0.0622193  -0.0378053  )
        40           O   tau(  40) = (  -0.0368048   0.4114773   0.1544240  )
        41           H   tau(  41) = (  -0.0205448   0.3955459   0.2052819  )
        42           H   tau(  42) = (  -0.0057888   0.4546480   0.1377128  )
        43           O   tau(  43) = (  -0.1965642  -0.0301393   0.1969820  )
        44           H   tau(  44) = (  -0.2155537  -0.0180459   0.2479512  )
        45           H   tau(  45) = (  -0.1428431  -0.0445276   0.2001571  )
        46           O   tau(  46) = (  -0.4270065  -0.0411965  -0.0165207  )
        47           H   tau(  47) = (  -0.4258590  -0.0677841   0.0324320  )
        48           H   tau(  48) = (  -0.4332008  -0.0782565  -0.0576471  )
        49           O   tau(  49) = (  -0.1761096   0.1076114  -0.2718460  )
        50           H   tau(  50) = (  -0.2304490   0.1067201  -0.2840452  )
        51           H   tau(  51) = (  -0.1473997   0.1252139  -0.3162032  )
        52           O   tau(  52) = (  -0.1697037  -0.2267190   0.1466254  )
        53           H   tau(  53) = (  -0.2086074  -0.1926783   0.1258478  )
        54           H   tau(  54) = (  -0.1203498  -0.2145978   0.1237868  )
        55           O   tau(  55) = (  -0.1500234  -0.2118070  -0.3257509  )
        56           H   tau(  56) = (  -0.1567970  -0.2170265  -0.3807921  )
        57           H   tau(  57) = (  -0.1051092  -0.1805013  -0.3154568  )
        58           O   tau(  58) = (   0.2265363  -0.2172048   0.0269730  )
        59           H   tau(  59) = (   0.2648050  -0.2193438   0.0673585  )
        60           H   tau(  60) = (   0.1810261  -0.1912244   0.0458567  )
        61           O   tau(  61) = (   0.3723697   0.0180949   0.2074543  )
        62           H   tau(  62) = (   0.3301459   0.0219942   0.1713581  )
        63           H   tau(  63) = (   0.4173229   0.0433289   0.1862311  )
        64           O   tau(  64) = (  -0.0801593   0.2191867   0.2633812  )
        65           H   tau(  65) = (  -0.0252518   0.2228632   0.2719597  )
        66           H   tau(  66) = (  -0.1046803   0.1980749   0.3087244  )
        67           O   tau(  67) = (   0.1164650   0.2397972  -0.3413703  )
        68           H   tau(  68) = (   0.1491633   0.2321658  -0.2969017  )
        69           H   tau(  69) = (   0.1205314   0.1956796  -0.3751716  )
        70           O   tau(  70) = (  -0.0754356   0.0866667  -0.1603264  )
        71           H   tau(  71) = (  -0.0675869   0.1354078  -0.1345689  )
        72           H   tau(  72) = (  -0.1104234   0.0936854  -0.2030960  )
        73           O   tau(  73) = (  -0.0109247  -0.3019864   0.3012043  )
        74           H   tau(  74) = (  -0.0664617  -0.3060807   0.2999231  )
        75           H   tau(  75) = (   0.0077863  -0.3186809   0.3509481  )
        76           O   tau(  76) = (   0.2708211   0.1781328   0.1003910  )
        77           H   tau(  77) = (   0.2370087   0.2195209   0.0847382  )
        78           H   tau(  78) = (   0.3172226   0.1994118   0.1226170  )
        79           O   tau(  79) = (   0.2687600  -0.2380492  -0.1163146  )
        80           H   tau(  80) = (   0.2253108  -0.2586542  -0.1443672  )
        81           H   tau(  81) = (   0.2558924  -0.2342001  -0.0622649  )
        82           O   tau(  82) = (   0.2225813  -0.0713714  -0.0079256  )
        83           H   tau(  83) = (   0.1733946  -0.0587266  -0.0308088  )
        84           H   tau(  84) = (   0.2353933  -0.1243238  -0.0195343  )
        85           O   tau(  85) = (  -0.0409770  -0.1819886   0.0889160  )
        86           H   tau(  86) = (  -0.0589918  -0.1394029   0.0578888  )
        87           H   tau(  87) = (  -0.0143895  -0.2186642   0.0564962  )
        88           O   tau(  88) = (  -0.3136096   0.2869786  -0.1169552  )
        89           H   tau(  89) = (  -0.3691967   0.2839149  -0.1188770  )
        90           H   tau(  90) = (  -0.2924421   0.2712701  -0.1660361  )
        91           O   tau(  91) = (  -0.3060339   0.3122126   0.0319864  )
        92           H   tau(  92) = (  -0.3066745   0.2958913  -0.0212890  )
        93           H   tau(  93) = (  -0.2533824   0.3201225   0.0483634  )
        94           O   tau(  94) = (   0.3418995  -0.2292480   0.1309726  )
        95           H   tau(  95) = (   0.3264138  -0.1964661   0.1732520  )
        96           H   tau(  96) = (   0.3879668  -0.2572393   0.1451214  )
        97           O   tau(  97) = (   0.1664873   0.0631038  -0.1475702  )
        98           H   tau(  98) = (   0.2191834   0.0530771  -0.1624933  )
        99           H   tau(  99) = (   0.1652061   0.0811520  -0.0948852  )
       100           O   tau( 100) = (  -0.2047137   0.0713480   0.0875234  )
       101           H   tau( 101) = (  -0.2090809   0.0397081   0.1331451  )
       102           H   tau( 102) = (  -0.2556049   0.0851070   0.0695310  )
       103           O   tau( 103) = (  -0.2575824  -0.1414973  -0.0646713  )
       104           H   tau( 104) = (  -0.2650078  -0.1299109  -0.0106941  )
       105           H   tau( 105) = (  -0.2403253  -0.0957030  -0.0912812  )
       106           O   tau( 106) = (  -0.0577885  -0.0828131   0.2111308  )
       107           H   tau( 107) = (  -0.0530537  -0.1251203   0.1752016  )
       108           H   tau( 108) = (  -0.0472048  -0.1009782   0.2627128  )
       109           O   tau( 109) = (   0.2604601   0.0181506   0.1016722  )
       110           H   tau( 110) = (   0.2516032   0.0725178   0.0933166  )
       111           H   tau( 111) = (   0.2397382  -0.0108211   0.0588915  )
       112           O   tau( 112) = (   0.1183590   0.3992224   0.0563291  )
       113           H   tau( 113) = (   0.1279958   0.3891399   0.0024075  )
       114           H   tau( 114) = (   0.0898385   0.4467380   0.0615653  )
       115           O   tau( 115) = (   0.1407520   0.2423596   0.0680270  )
       116           H   tau( 116) = (   0.1033189   0.2203565   0.1028977  )
       117           H   tau( 117) = (   0.1284971   0.2958913   0.0589472  )
       118           O   tau( 118) = (  -0.1729178  -0.3211319   0.0245778  )
       119           H   tau( 119) = (  -0.1333567  -0.2909124  -0.0004334  )
       120           H   tau( 120) = (  -0.1626459  -0.3235717   0.0792792  )
       121           O   tau( 121) = (  -0.2664617  -0.1118850   0.0930381  )
       122           H   tau( 122) = (  -0.3192357  -0.1273151   0.1019508  )
       123           H   tau( 123) = (  -0.2520566  -0.0727473   0.1299699  )
       124           O   tau( 124) = (  -0.0373841  -0.3651381   0.1500791  )
       125           H   tau( 125) = (  -0.0318026  -0.3282175   0.1914115  )
       126           H   tau( 126) = (   0.0112400  -0.3707531   0.1235082  )
       127           O   tau( 127) = (   0.2208545  -0.0824621  -0.3695733  )
       128           H   tau( 128) = (   0.1729490  -0.1100969  -0.3762857  )
       129           H   tau( 129) = (   0.2266477  -0.0451515  -0.4105270  )
       130           O   tau( 130) = (   0.3203977   0.0499577  -0.1713391  )
       131           H   tau( 131) = (   0.3294775   0.0115831  -0.2106829  )
       132           H   tau( 132) = (   0.3173340   0.0251136  -0.1215619  )
       133           O   tau( 133) = (  -0.0665118   0.2252028  -0.1048619  )
       134           H   tau( 134) = (  -0.0838414   0.2520521  -0.1504779  )
       135           H   tau( 135) = (  -0.0169184   0.2452005  -0.0892591  )
       136           O   tau( 136) = (  -0.2210851   0.0200446   0.3542346  )
       137           H   tau( 137) = (  -0.2231183   0.0005871   0.4063737  )
       138           H   tau( 138) = (  -0.1679378   0.0268962   0.3390274  )
       139           O   tau( 139) = (  -0.1524911  -0.2665363   0.2946312  )
       140           H   tau( 140) = (  -0.1639717  -0.2538414   0.2416009  )
       141           H   tau( 141) = (  -0.1999621  -0.2702016   0.3235417  )
       142           O   tau( 142) = (  -0.1081729   0.0016288  -0.4346914  )
       143           H   tau( 143) = (  -0.1045633  -0.0281896  -0.4816054  )
       144           H   tau( 144) = (  -0.1375958   0.0479523  -0.4443449  )
       145           O   tau( 145) = (   0.3425680  -0.0587879  -0.2724365  )
       146           H   tau( 146) = (   0.3690831  -0.1075290  -0.2773162  )
       147           H   tau( 147) = (   0.3255782  -0.0417926  -0.3226872  )
       148           O   tau( 148) = (  -0.0241878   0.3104857  -0.2471190  )
       149           H   tau( 149) = (   0.0274499   0.2897638  -0.2492859  )
       150           H   tau( 150) = (  -0.0217424   0.3659670  -0.2425624  )
       151           O   tau( 151) = (   0.1761798   0.3737099  -0.0959603  )
       152           H   tau( 152) = (   0.1694953   0.4109759  -0.1368360  )
       153           H   tau( 153) = (   0.2237511   0.3841266  -0.0689550  )
       154           O   tau( 154) = (   0.0124098   0.1203676  -0.4028788  )
       155           H   tau( 155) = (  -0.0263826   0.0885049  -0.4270878  )
       156           H   tau( 156) = (  -0.0003131   0.1273864  -0.3491020  )
       157           O   tau( 157) = (   0.1257676  -0.2985550  -0.0768483  )
       158           H   tau( 158) = (   0.1462110  -0.3439650  -0.1017981  )
       159           H   tau( 159) = (   0.1411419  -0.2982709  -0.0233111  )
       160           O   tau( 160) = (   0.1117859  -0.3894920   0.0854623  )
       161           H   tau( 161) = (   0.1523942  -0.3638291   0.1137043  )
       162           H   tau( 162) = (   0.1326749  -0.4339661   0.0592257  )
       163           O   tau( 163) = (  -0.1118494  -0.3382721  -0.1349254  )
       164           H   tau( 164) = (  -0.1660216  -0.3479757  -0.1435651  )
       165           H   tau( 165) = (  -0.0930604  -0.3024822  -0.1732498  )
       166           O   tau( 166) = (  -0.0629802   0.0573663   0.3381361  )
       167           H   tau( 167) = (  -0.0280816   0.0818204   0.3739539  )
       168           H   tau( 168) = (  -0.0337021   0.0290686   0.3000902  )
       169           O   tau( 169) = (  -0.3040564  -0.2817602  -0.0419608  )
       170           H   tau( 170) = (  -0.2567023  -0.3012066  -0.0200022  )
       171           H   tau( 171) = (  -0.3029534  -0.2260673  -0.0421223  )
       172           O   tau( 172) = (   0.1978487  -0.1180515  -0.2063826  )
       173           H   tau( 173) = (   0.2218572  -0.0876816  -0.2464505  )
       174           H   tau( 174) = (   0.2361731  -0.1503654  -0.1821123  )
       175           O   tau( 175) = (  -0.1247337   0.2253699  -0.3570733  )
       176           H   tau( 176) = (  -0.1127462   0.2767848  -0.3392870  )
       177           H   tau( 177) = (  -0.0990541   0.2160116  -0.4056139  )
       178           O   tau( 178) = (  -0.2379635   0.0160116  -0.1048006  )
       179           H   tau( 179) = (  -0.1872672   0.0390397  -0.1034915  )
       180           H   tau( 180) = (  -0.2740263   0.0517402  -0.1276894  )
       181           O   tau( 181) = (  -0.0220878  -0.2846012  -0.0203197  )
       182           H   tau( 182) = (  -0.0549922  -0.3051894  -0.0602707  )
       183           H   tau( 183) = (   0.0307921  -0.2847850  -0.0378832  )
       184           O   tau( 184) = (  -0.3441578   0.0987545   0.0259147  )
       185           H   tau( 185) = (  -0.3685896   0.1373017  -0.0060038  )
       186           H   tau( 186) = (  -0.3636096   0.0483422   0.0122672  )
       187           O   tau( 187) = (   0.1369084   0.1025980  -0.0090397  )
       188           H   tau( 188) = (   0.1544552   0.1482197   0.0176705  )
       189           H   tau( 189) = (   0.0921223   0.0819318   0.0168906  )
       190           O   tau( 190) = (  -0.0430827  -0.2077239  -0.1963391  )
       191           H   tau( 191) = (  -0.0481796  -0.1541644  -0.1819062  )
       192           H   tau( 192) = (   0.0108500  -0.2217001  -0.1971190  )
       193           O   tau( 193) = (   0.2028621  -0.0373585   0.2387043  )
       194           H   tau( 194) = (   0.2384013  -0.0292424   0.1965363  )
       195           H   tau( 195) = (   0.1505559  -0.0337934   0.2198206  )
       196           O   tau( 196) = (  -0.0233746  -0.0819998  -0.3269931  )
       197           H   tau( 197) = (  -0.0520232  -0.0526214  -0.3646602  )
       198           H   tau( 198) = (   0.0064494  -0.0473407  -0.2952028  )
       199           O   tau( 199) = (  -0.1554434   0.3442424   0.0644619  )
       200           H   tau( 200) = (  -0.1169630   0.3728743   0.0927596  )
       201           H   tau( 201) = (  -0.1345042   0.2948329   0.0494218  )
       202           O   tau( 202) = (   0.1799677   0.1265508   0.2455559  )
       203           H   tau( 203) = (   0.2049231   0.1396413   0.1975390  )
       204           H   tau( 204) = (   0.1546223   0.0771970   0.2404869  )
       205           O   tau( 205) = (   0.1089450  -0.2088547   0.2472270  )
       206           H   tau( 206) = (   0.1439828  -0.2518917   0.2423808  )
       207           H   tau( 207) = (   0.0584213  -0.2275490   0.2613202  )
       208           O   tau( 208) = (   0.3586664  -0.0204579  -0.0407353  )
       209           H   tau( 209) = (   0.3102039  -0.0433746  -0.0256451  )
       210           H   tau( 210) = (   0.3976036  -0.0328186  -0.0028844  )
       211           O   tau( 211) = (   0.1025947  -0.1104701   0.3765163  )
       212           H   tau( 212) = (   0.1211442  -0.1416533   0.3342926  )
       213           H   tau( 213) = (   0.1246535  -0.0594452   0.3730626  )
       214           O   tau( 214) = (  -0.2644842  -0.2155281  -0.2203142  )
       215           H   tau( 215) = (  -0.2188291  -0.2165865  -0.2522103  )
       216           H   tau( 216) = (  -0.2500234  -0.2051281  -0.1675345  )
       217           O   tau( 217) = (   0.1077195  -0.1260283   0.1104735  )
       218           H   tau( 218) = (   0.0533523  -0.1287745   0.0986642  )
       219           H   tau( 219) = (   0.1163536  -0.1434804   0.1626682  )
       220           O   tau( 220) = (   0.0981941  -0.0775992  -0.1006785  )
       221           H   tau( 221) = (   0.1115074  -0.0264795  -0.1183590  )
       222           H   tau( 222) = (   0.1293327  -0.1152106  -0.1275111  )
       223           O   tau( 223) = (   0.0045945   0.1984648   0.1214472  )
       224           H   tau( 224) = (  -0.0145677   0.1891065   0.1729178  )
       225           H   tau( 225) = (  -0.0381974   0.2085472   0.0872449  )
       226           O   tau( 226) = (  -0.0663837  -0.1361330   0.3574655  )
       227           H   tau( 227) = (  -0.0329779  -0.1273429   0.4011932  )
       228           H   tau( 228) = (  -0.0970544  -0.1817658   0.3664338  )

   Crystallographic axes

     site n.     atom                  positions (cryst. coord.)
         1           O   tau(   1) = ( -0.2013436  0.3069207  0.2097939  )
         2           H   tau(   2) = ( -0.1738648  0.2623574  0.2288447  )
         3           H   tau(   3) = ( -0.1903197  0.3137723  0.1556495  )
         4           O   tau(   4) = (  0.0689494  0.1962923  0.3103398  )
         5           H   tau(   5) = (  0.1057141  0.2154545  0.3474944  )
         6           H   tau(   6) = (  0.0956317  0.1669920  0.2712355  )
         7           O   tau(   7) = ( -0.3814572  0.0804278  0.1704668  )
         8           H   tau(   8) = ( -0.3759314  0.1289461  0.1973162  )
         9           H   tau(   9) = ( -0.3687678  0.0874465  0.1166566  )
        10           O   tau(  10) = (  0.2094352  0.1811965 -0.2485116  )
        11           H   tau(  11) = (  0.2599588  0.1822549 -0.2249877  )
        12           H   tau(  12) = (  0.1791321  0.1404211 -0.2256228  )
        13           O   tau(  13) = (  0.0887244 -0.1510673 -0.3942112  )
        14           H   tau(  14) = (  0.0397605 -0.1392747 -0.3703754  )
        15           H   tau(  15) = (  0.0908411 -0.2053788 -0.4063993  )
        16           O   tau(  16) = ( -0.1129857  0.1842602  0.0383924  )
        17           H   tau(  17) = ( -0.0987979  0.1854300 -0.0154846  )
        18           H   tau(  18) = ( -0.1519842  0.1452674  0.0464138  )
        19           O   tau(  19) = (  0.1901615  0.0255593  0.3698318  )
        20           H   tau(  20) = (  0.1987957  0.0031829  0.3195867  )
        21           H   tau(  21) = (  0.1882676  0.0810406  0.3654311  )
        22           O   tau(  22) = (  0.0666656  0.2863659 -0.0610561  )
        23           H   tau(  23) = (  0.0880559  0.2535004 -0.0215174  )
        24           H   tau(  24) = (  0.1073295  0.3167803 -0.0839505  )
        25           O   tau(  25) = (  0.0413759  0.0256150 -0.2359225  )
        26           H   tau(  26) = (  0.0885016  0.0331907 -0.2072516  )
        27           H   tau(  27) = ( -0.0007531  0.0506261 -0.2093906  )
        28           O   tau(  28) = ( -0.0049142  0.0627139  0.0615653  )
        29           H   tau(  29) = ( -0.0319196  0.0149086  0.0521513  )
        30           H   tau(  30) = ( -0.0418126  0.1031551  0.0717034  )
        31           O   tau(  31) = ( -0.0611754 -0.0666756 -0.1319452  )
        32           H   tau(  32) = ( -0.0066912 -0.0591722 -0.1231105  )
        33           H   tau(  33) = ( -0.0824655 -0.0213157 -0.1562767  )
        34           O   tau(  34) = (  0.0470577  0.0253365  0.2010484  )
        35           H   tau(  35) = (  0.0421000  0.0511832  0.1519730  )
        36           H   tau(  36) = (  0.0112957 -0.0172995  0.2032765  )
        37           O   tau(  37) = ( -0.1020455 -0.0664138  0.0173362  )
        38           H   tau(  38) = ( -0.1520399 -0.0462656  0.0313737  )
        39           H   tau(  39) = ( -0.0951549 -0.0622193 -0.0378053  )
        40           O   tau(  40) = ( -0.0368048  0.4114773  0.1544240  )
        41           H   tau(  41) = ( -0.0205448  0.3955459  0.2052819  )
        42           H   tau(  42) = ( -0.0057888  0.4546480  0.1377128  )
        43           O   tau(  43) = ( -0.1965642 -0.0301393  0.1969820  )
        44           H   tau(  44) = ( -0.2155537 -0.0180459  0.2479512  )
        45           H   tau(  45) = ( -0.1428431 -0.0445276  0.2001571  )
        46           O   tau(  46) = ( -0.4270065 -0.0411965 -0.0165207  )
        47           H   tau(  47) = ( -0.4258590 -0.0677841  0.0324320  )
        48           H   tau(  48) = ( -0.4332008 -0.0782565 -0.0576471  )
        49           O   tau(  49) = ( -0.1761096  0.1076114 -0.2718460  )
        50           H   tau(  50) = ( -0.2304490  0.1067201 -0.2840452  )
        51           H   tau(  51) = ( -0.1473997  0.1252139 -0.3162032  )
        52           O   tau(  52) = ( -0.1697037 -0.2267190  0.1466254  )
        53           H   tau(  53) = ( -0.2086074 -0.1926783  0.1258478  )
        54           H   tau(  54) = ( -0.1203498 -0.2145978  0.1237868  )
        55           O   tau(  55) = ( -0.1500234 -0.2118070 -0.3257509  )
        56           H   tau(  56) = ( -0.1567970 -0.2170265 -0.3807921  )
        57           H   tau(  57) = ( -0.1051092 -0.1805013 -0.3154568  )
        58           O   tau(  58) = (  0.2265363 -0.2172048  0.0269730  )
        59           H   tau(  59) = (  0.2648050 -0.2193438  0.0673585  )
        60           H   tau(  60) = (  0.1810261 -0.1912244  0.0458567  )
        61           O   tau(  61) = (  0.3723697  0.0180949  0.2074543  )
        62           H   tau(  62) = (  0.3301459  0.0219942  0.1713581  )
        63           H   tau(  63) = (  0.4173229  0.0433289  0.1862311  )
        64           O   tau(  64) = ( -0.0801593  0.2191867  0.2633812  )
        65           H   tau(  65) = ( -0.0252518  0.2228632  0.2719597  )
        66           H   tau(  66) = ( -0.1046803  0.1980749  0.3087244  )
        67           O   tau(  67) = (  0.1164650  0.2397972 -0.3413703  )
        68           H   tau(  68) = (  0.1491633  0.2321658 -0.2969017  )
        69           H   tau(  69) = (  0.1205314  0.1956796 -0.3751716  )
        70           O   tau(  70) = ( -0.0754356  0.0866667 -0.1603264  )
        71           H   tau(  71) = ( -0.0675869  0.1354078 -0.1345689  )
        72           H   tau(  72) = ( -0.1104234  0.0936854 -0.2030960  )
        73           O   tau(  73) = ( -0.0109247 -0.3019864  0.3012043  )
        74           H   tau(  74) = ( -0.0664617 -0.3060807  0.2999231  )
        75           H   tau(  75) = (  0.0077863 -0.3186809  0.3509481  )
        76           O   tau(  76) = (  0.2708211  0.1781328  0.1003910  )
        77           H   tau(  77) = (  0.2370087  0.2195209  0.0847382  )
        78           H   tau(  78) = (  0.3172226  0.1994118  0.1226170  )
        79           O   tau(  79) = (  0.2687600 -0.2380492 -0.1163146  )
        80           H   tau(  80) = (  0.2253108 -0.2586542 -0.1443672  )
        81           H   tau(  81) = (  0.2558924 -0.2342001 -0.0622649  )
        82           O   tau(  82) = (  0.2225813 -0.0713714 -0.0079256  )
        83           H   tau(  83) = (  0.1733946 -0.0587266 -0.0308088  )
        84           H   tau(  84) = (  0.2353933 -0.1243238 -0.0195343  )
        85           O   tau(  85) = ( -0.0409770 -0.1819886  0.0889160  )
        86           H   tau(  86) = ( -0.0589918 -0.1394029  0.0578888  )
        87           H   tau(  87) = ( -0.0143895 -0.2186642  0.0564962  )
        88           O   tau(  88) = ( -0.3136096  0.2869786 -0.1169552  )
        89           H   tau(  89) = ( -0.3691967  0.2839149 -0.1188770  )
        90           H   tau(  90) = ( -0.2924421  0.2712701 -0.1660361  )
        91           O   tau(  91) = ( -0.3060339  0.3122126  0.0319864  )
        92           H   tau(  92) = ( -0.3066745  0.2958913 -0.0212890  )
        93           H   tau(  93) = ( -0.2533824  0.3201225  0.0483634  )
        94           O   tau(  94) = (  0.3418995 -0.2292480  0.1309726  )
        95           H   tau(  95) = (  0.3264138 -0.1964661  0.1732520  )
        96           H   tau(  96) = (  0.3879668 -0.2572393  0.1451214  )
        97           O   tau(  97) = (  0.1664873  0.0631038 -0.1475702  )
        98           H   tau(  98) = (  0.2191834  0.0530771 -0.1624933  )
        99           H   tau(  99) = (  0.1652061  0.0811520 -0.0948852  )
       100           O   tau( 100) = ( -0.2047137  0.0713480  0.0875234  )
       101           H   tau( 101) = ( -0.2090809  0.0397081  0.1331451  )
       102           H   tau( 102) = ( -0.2556049  0.0851070  0.0695310  )
       103           O   tau( 103) = ( -0.2575824 -0.1414973 -0.0646713  )
       104           H   tau( 104) = ( -0.2650078 -0.1299109 -0.0106941  )
       105           H   tau( 105) = ( -0.2403253 -0.0957030 -0.0912812  )
       106           O   tau( 106) = ( -0.0577885 -0.0828131  0.2111308  )
       107           H   tau( 107) = ( -0.0530537 -0.1251203  0.1752016  )
       108           H   tau( 108) = ( -0.0472048 -0.1009782  0.2627128  )
       109           O   tau( 109) = (  0.2604601  0.0181506  0.1016722  )
       110           H   tau( 110) = (  0.2516032  0.0725178  0.0933166  )
       111           H   tau( 111) = (  0.2397382 -0.0108211  0.0588915  )
       112           O   tau( 112) = (  0.1183590  0.3992224  0.0563291  )
       113           H   tau( 113) = (  0.1279958  0.3891399  0.0024075  )
       114           H   tau( 114) = (  0.0898385  0.4467380  0.0615653  )
       115           O   tau( 115) = (  0.1407520  0.2423596  0.0680270  )
       116           H   tau( 116) = (  0.1033189  0.2203565  0.1028977  )
       117           H   tau( 117) = (  0.1284971  0.2958913  0.0589472  )
       118           O   tau( 118) = ( -0.1729178 -0.3211319  0.0245778  )
       119           H   tau( 119) = ( -0.1333567 -0.2909124 -0.0004334  )
       120           H   tau( 120) = ( -0.1626459 -0.3235717  0.0792792  )
       121           O   tau( 121) = ( -0.2664617 -0.1118850  0.0930381  )
       122           H   tau( 122) = ( -0.3192357 -0.1273151  0.1019508  )
       123           H   tau( 123) = ( -0.2520566 -0.0727473  0.1299699  )
       124           O   tau( 124) = ( -0.0373841 -0.3651381  0.1500791  )
       125           H   tau( 125) = ( -0.0318026 -0.3282175  0.1914115  )
       126           H   tau( 126) = (  0.0112400 -0.3707531  0.1235082  )
       127           O   tau( 127) = (  0.2208545 -0.0824621 -0.3695733  )
       128           H   tau( 128) = (  0.1729490 -0.1100969 -0.3762857  )
       129           H   tau( 129) = (  0.2266477 -0.0451515 -0.4105270  )
       130           O   tau( 130) = (  0.3203977  0.0499577 -0.1713391  )
       131           H   tau( 131) = (  0.3294775  0.0115831 -0.2106829  )
       132           H   tau( 132) = (  0.3173340  0.0251136 -0.1215619  )
       133           O   tau( 133) = ( -0.0665118  0.2252028 -0.1048619  )
       134           H   tau( 134) = ( -0.0838414  0.2520521 -0.1504779  )
       135           H   tau( 135) = ( -0.0169184  0.2452005 -0.0892591  )
       136           O   tau( 136) = ( -0.2210851  0.0200446  0.3542346  )
       137           H   tau( 137) = ( -0.2231183  0.0005871  0.4063737  )
       138           H   tau( 138) = ( -0.1679378  0.0268962  0.3390274  )
       139           O   tau( 139) = ( -0.1524911 -0.2665363  0.2946312  )
       140           H   tau( 140) = ( -0.1639717 -0.2538414  0.2416009  )
       141           H   tau( 141) = ( -0.1999621 -0.2702016  0.3235417  )
       142           O   tau( 142) = ( -0.1081729  0.0016288 -0.4346914  )
       143           H   tau( 143) = ( -0.1045633 -0.0281896 -0.4816054  )
       144           H   tau( 144) = ( -0.1375958  0.0479523 -0.4443449  )
       145           O   tau( 145) = (  0.3425680 -0.0587879 -0.2724365  )
       146           H   tau( 146) = (  0.3690831 -0.1075290 -0.2773162  )
       147           H   tau( 147) = (  0.3255782 -0.0417926 -0.3226872  )
       148           O   tau( 148) = ( -0.0241878  0.3104857 -0.2471190  )
       149           H   tau( 149) = (  0.0274499  0.2897638 -0.2492859  )
       150           H   tau( 150) = ( -0.0217424  0.3659670 -0.2425624  )
       151           O   tau( 151) = (  0.1761798  0.3737099 -0.0959603  )
       152           H   tau( 152) = (  0.1694953  0.4109759 -0.1368360  )
       153           H   tau( 153) = (  0.2237511  0.3841266 -0.0689550  )
       154           O   tau( 154) = (  0.0124098  0.1203676 -0.4028788  )
       155           H   tau( 155) = ( -0.0263826  0.0885049 -0.4270878  )
       156           H   tau( 156) = ( -0.0003131  0.1273864 -0.3491020  )
       157           O   tau( 157) = (  0.1257676 -0.2985550 -0.0768483  )
       158           H   tau( 158) = (  0.1462110 -0.3439650 -0.1017981  )
       159           H   tau( 159) = (  0.1411419 -0.2982709 -0.0233111  )
       160           O   tau( 160) = (  0.1117859 -0.3894920  0.0854623  )
       161           H   tau( 161) = (  0.1523942 -0.3638291  0.1137043  )
       162           H   tau( 162) = (  0.1326749 -0.4339661  0.0592257  )
       163           O   tau( 163) = ( -0.1118494 -0.3382721 -0.1349254  )
       164           H   tau( 164) = ( -0.1660216 -0.3479757 -0.1435651  )
       165           H   tau( 165) = ( -0.0930604 -0.3024822 -0.1732498  )
       166           O   tau( 166) = ( -0.0629802  0.0573663  0.3381361  )
       167           H   tau( 167) = ( -0.0280816  0.0818204  0.3739539  )
       168           H   tau( 168) = ( -0.0337021  0.0290686  0.3000902  )
       169           O   tau( 169) = ( -0.3040564 -0.2817602 -0.0419608  )
       170           H   tau( 170) = ( -0.2567023 -0.3012066 -0.0200022  )
       171           H   tau( 171) = ( -0.3029534 -0.2260673 -0.0421223  )
       172           O   tau( 172) = (  0.1978487 -0.1180515 -0.2063826  )
       173           H   tau( 173) = (  0.2218572 -0.0876816 -0.2464505  )
       174           H   tau( 174) = (  0.2361731 -0.1503654 -0.1821123  )
       175           O   tau( 175) = ( -0.1247337  0.2253699 -0.3570733  )
       176           H   tau( 176) = ( -0.1127462  0.2767848 -0.3392870  )
       177           H   tau( 177) = ( -0.0990541  0.2160116 -0.4056139  )
       178           O   tau( 178) = ( -0.2379635  0.0160116 -0.1048006  )
       179           H   tau( 179) = ( -0.1872672  0.0390397 -0.1034915  )
       180           H   tau( 180) = ( -0.2740263  0.0517402 -0.1276894  )
       181           O   tau( 181) = ( -0.0220878 -0.2846012 -0.0203197  )
       182           H   tau( 182) = ( -0.0549922 -0.3051894 -0.0602707  )
       183           H   tau( 183) = (  0.0307921 -0.2847850 -0.0378832  )
       184           O   tau( 184) = ( -0.3441578  0.0987545  0.0259147  )
       185           H   tau( 185) = ( -0.3685896  0.1373017 -0.0060038  )
       186           H   tau( 186) = ( -0.3636096  0.0483422  0.0122672  )
       187           O   tau( 187) = (  0.1369084  0.1025980 -0.0090397  )
       188           H   tau( 188) = (  0.1544552  0.1482197  0.0176705  )
       189           H   tau( 189) = (  0.0921223  0.0819318  0.0168906  )
       190           O   tau( 190) = ( -0.0430827 -0.2077239 -0.1963391  )
       191           H   tau( 191) = ( -0.0481796 -0.1541644 -0.1819062  )
       192           H   tau( 192) = (  0.0108500 -0.2217001 -0.1971190  )
       193           O   tau( 193) = (  0.2028621 -0.0373585  0.2387043  )
       194           H   tau( 194) = (  0.2384013 -0.0292424  0.1965363  )
       195           H   tau( 195) = (  0.1505559 -0.0337934  0.2198206  )
       196           O   tau( 196) = ( -0.0233746 -0.0819998 -0.3269931  )
       197           H   tau( 197) = ( -0.0520232 -0.0526214 -0.3646602  )
       198           H   tau( 198) = (  0.0064494 -0.0473407 -0.2952028  )
       199           O   tau( 199) = ( -0.1554434  0.3442424  0.0644619  )
       200           H   tau( 200) = ( -0.1169630  0.3728743  0.0927596  )
       201           H   tau( 201) = ( -0.1345042  0.2948329  0.0494218  )
       202           O   tau( 202) = (  0.1799677  0.1265508  0.2455559  )
       203           H   tau( 203) = (  0.2049231  0.1396413  0.1975390  )
       204           H   tau( 204) = (  0.1546223  0.0771970  0.2404869  )
       205           O   tau( 205) = (  0.1089450 -0.2088547  0.2472270  )
       206           H   tau( 206) = (  0.1439828 -0.2518917  0.2423808  )
       207           H   tau( 207) = (  0.0584213 -0.2275490  0.2613202  )
       208           O   tau( 208) = (  0.3586664 -0.0204579 -0.0407353  )
       209           H   tau( 209) = (  0.3102039 -0.0433746 -0.0256451  )
       210           H   tau( 210) = (  0.3976036 -0.0328186 -0.0028844  )
       211           O   tau( 211) = (  0.1025947 -0.1104701  0.3765163  )
       212           H   tau( 212) = (  0.1211442 -0.1416533  0.3342926  )
       213           H   tau( 213) = (  0.1246535 -0.0594452  0.3730626  )
       214           O   tau( 214) = ( -0.2644842 -0.2155281 -0.2203142  )
       215           H   tau( 215) = ( -0.2188291 -0.2165865 -0.2522103  )
       216           H   tau( 216) = ( -0.2500234 -0.2051281 -0.1675345  )
       217           O   tau( 217) = (  0.1077195 -0.1260283  0.1104735  )
       218           H   tau( 218) = (  0.0533523 -0.1287745  0.0986642  )
       219           H   tau( 219) = (  0.1163536 -0.1434804  0.1626682  )
       220           O   tau( 220) = (  0.0981941 -0.0775992 -0.1006785  )
       221           H   tau( 221) = (  0.1115074 -0.0264795 -0.1183590  )
       222           H   tau( 222) = (  0.1293327 -0.1152106 -0.1275111  )
       223           O   tau( 223) = (  0.0045945  0.1984648  0.1214472  )
       224           H   tau( 224) = ( -0.0145677  0.1891065  0.1729178  )
       225           H   tau( 225) = ( -0.0381974  0.2085472  0.0872449  )
       226           O   tau( 226) = ( -0.0663837 -0.1361330  0.3574655  )
       227           H   tau( 227) = ( -0.0329779 -0.1273429  0.4011932  )
       228           H   tau( 228) = ( -0.0970544 -0.1817658  0.3664338  )

     number of k points=     1
                       cart. coord. in units 2pi/alat
        k(    1) = (   0.0000000   0.0000000   0.0000000), wk =   2.0000000

                       cryst. coord.
        k(    1) = (   0.0000000   0.0000000   0.0000000), wk =   2.0000000

     Dense  grid:  3466533 G-vectors     FFT dimensions: ( 240, 240, 240)

     Smooth grid:  1225780 G-vectors     FFT dimensions: ( 180, 180, 180)

     Dynamical RAM for                 wfc:      14.80 MB

     Dynamical RAM for     wfc (w. buffer):      14.80 MB

     Dynamical RAM for           str. fact:       2.20 MB

     Dynamical RAM for           local pot:       0.00 MB

     Dynamical RAM for          nlocal pot:      44.41 MB

     Dynamical RAM for                qrad:       1.00 MB

     Dynamical RAM for          rho,v,vnew:       9.90 MB

     Dynamical RAM for               rhoin:       3.30 MB

     Dynamical RAM for            rho*nmix:      17.63 MB

     Dynamical RAM for           G-vectors:       4.33 MB

     Dynamical RAM for          h,s,v(r/c):       0.93 MB

     Dynamical RAM for          <psi|beta>:       2.12 MB

     Dynamical RAM for                 psi:      29.60 MB

     Dynamical RAM for                hpsi:      29.60 MB

     Dynamical RAM for                spsi:      29.60 MB

     Dynamical RAM for      wfcinit/wfcrot:      49.17 MB

     Dynamical RAM for           addusdens:     214.88 MB

     Dynamical RAM for          addusforce:     548.35 MB

     Estimated static dynamical RAM per process >     111.86 MB

     Estimated max dynamical RAM per process >     660.21 MB

     Estimated total dynamical RAM >      30.95 GB

     Initial potential from superposition of free atoms

     starting charge  607.99844, renormalised to  608.00000

     negative rho (up, down):  1.239E-03 0.000E+00
     Starting wfcs are  456 randomized atomic wfcs
     Checking if some PAW data can be deallocated... 

     total cpu time spent up to now is        5.3 secs

     Self-consistent Calculation

     iteration #  1     ecut=    60.00 Ry     beta= 0.70
     Davidson diagonalization with overlap
     ethr =  1.00E-02,  avg # of iterations =  2.0

     negative rho (up, down):  3.112E-03 0.000E+00

     total cpu time spent up to now is       10.3 secs

     total energy              =   -3335.37015284 Ry
     estimated scf accuracy    <      28.93683236 Ry

     iteration #  2     ecut=    60.00 Ry     beta= 0.70
     Davidson diagonalization with overlap
     ethr =  4.76E-03,  avg # of iterations =  3.0

     negative rho (up, down):  3.019E-03 0.000E+00

     total cpu time spent up to now is       16.3 secs

     total energy              =   -3344.27215318 Ry
     estimated scf accuracy    <      23.01121636 Ry

     iteration #  3     ecut=    60.00 Ry     beta= 0.70
     Davidson diagonalization with overlap
     ethr =  3.78E-03,  avg # of iterations =  2.0

     negative rho (up, down):  2.766E-03 0.000E+00

     total cpu time spent up to now is       21.2 secs

     total energy              =   -3347.52173997 Ry
     estimated scf accuracy    <       0.84553695 Ry

     iteration #  4     ecut=    60.00 Ry     beta= 0.70
     Davidson diagonalization with overlap
     ethr =  1.39E-04,  avg # of iterations =  4.0

     negative rho (up, down):  3.436E-03 0.000E+00

     total cpu time spent up to now is       28.1 secs

     total energy              =   -3348.26117180 Ry
     estimated scf accuracy    <       1.03451169 Ry

     iteration #  5     ecut=    60.00 Ry     beta= 0.70
     Davidson diagonalization with overlap
     ethr =  1.39E-04,  avg # of iterations =  2.0

     negative rho (up, down):  3.587E-03 0.000E+00

     total cpu time spent up to now is       32.3 secs

     total energy              =   -3348.28599052 Ry
     estimated scf accuracy    <       0.23805248 Ry

     iteration #  6     ecut=    60.00 Ry     beta= 0.70
     Davidson diagonalization with overlap
     ethr =  3.92E-05,  avg # of iterations =  2.0

     negative rho (up, down):  3.654E-03 0.000E+00

     total cpu time spent up to now is       36.4 secs

     total energy              =   -3348.27477367 Ry
     estimated scf accuracy    <       0.10523741 Ry

     iteration #  7     ecut=    60.00 Ry     beta= 0.70
     Davidson diagonalization with overlap
     ethr =  1.73E-05,  avg # of iterations =  2.0

     negative rho (up, down):  3.711E-03 0.000E+00

     total cpu time spent up to now is       40.5 secs

     total energy              =   -3348.26870472 Ry
     estimated scf accuracy    <       0.03440455 Ry

     iteration #  8     ecut=    60.00 Ry     beta= 0.70
     Davidson diagonalization with overlap
     ethr =  5.66E-06,  avg # of iterations =  3.0

     negative rho (up, down):  3.680E-03 0.000E+00

     total cpu time spent up to now is       45.7 secs

     total energy              =   -3348.27713225 Ry
     estimated scf accuracy    <       0.00068335 Ry

     iteration #  9     ecut=    60.00 Ry     beta= 0.70
     Davidson diagonalization with overlap
     ethr =  1.12E-07,  avg # of iterations =  5.0

     negative rho (up, down):  3.642E-03 0.000E+00

     total cpu time spent up to now is       52.6 secs

     total energy              =   -3348.27815600 Ry
     estimated scf accuracy    <       0.00107161 Ry

     iteration # 10     ecut=    60.00 Ry     beta= 0.70
     Davidson diagonalization with overlap
     ethr =  1.12E-07,  avg # of iterations =  2.0

     negative rho (up, down):  3.603E-03 0.000E+00

     total cpu time spent up to now is       56.6 secs

     total energy              =   -3348.27775469 Ry
     estimated scf accuracy    <       0.00090384 Ry

     iteration # 11     ecut=    60.00 Ry     beta= 0.70
     Davidson diagonalization with overlap
     ethr =  1.12E-07,  avg # of iterations =  2.0

     negative rho (up, down):  3.595E-03 0.000E+00

     total cpu time spent up to now is       61.7 secs

     total energy              =   -3348.27787456 Ry
     estimated scf accuracy    <       0.00003967 Ry

     iteration # 12     ecut=    60.00 Ry     beta= 0.70
     Davidson diagonalization with overlap
     ethr =  6.52E-09,  avg # of iterations =  4.0

     negative rho (up, down):  3.596E-03 0.000E+00

     total cpu time spent up to now is       67.7 secs

     total energy              =   -3348.27789946 Ry
     estimated scf accuracy    <       0.00001289 Ry

     iteration # 13     ecut=    60.00 Ry     beta= 0.70
     Davidson diagonalization with overlap
     ethr =  2.12E-09,  avg # of iterations =  2.0

     negative rho (up, down):  3.599E-03 0.000E+00

     total cpu time spent up to now is       71.7 secs

     total energy              =   -3348.27789693 Ry
     estimated scf accuracy    <       0.00000743 Ry

     iteration # 14     ecut=    60.00 Ry     beta= 0.70
     Davidson diagonalization with overlap
     ethr =  1.22E-09,  avg # of iterations =  3.0

     negative rho (up, down):  3.600E-03 0.000E+00

     total cpu time spent up to now is       76.5 secs

     total energy              =   -3348.27789749 Ry
     estimated scf accuracy    <       0.00000061 Ry

     iteration # 15     ecut=    60.00 Ry     beta= 0.70
     Davidson diagonalization with overlap
     ethr =  1.01E-10,  avg # of iterations =  3.0

     negative rho (up, down):  3.599E-03 0.000E+00

     total cpu time spent up to now is       82.0 secs

     total energy              =   -3348.27789777 Ry
     estimated scf accuracy    <       0.00000008 Ry

     iteration # 16     ecut=    60.00 Ry     beta= 0.70
     Davidson diagonalization with overlap
     ethr =  1.24E-11,  avg # of iterations =  5.0

     negative rho (up, down):  3.599E-03 0.000E+00

     total cpu time spent up to now is       87.1 secs

     total energy              =   -3348.27789777 Ry
     estimated scf accuracy    <       0.00000008 Ry

     iteration # 17     ecut=    60.00 Ry     beta= 0.70
     Davidson diagonalization with overlap
     ethr =  1.24E-11,  avg # of iterations =  3.0

     negative rho (up, down):  3.599E-03 0.000E+00

     total cpu time spent up to now is       91.4 secs

     total energy              =   -3348.27789778 Ry
     estimated scf accuracy    <       0.00000001 Ry

     iteration # 18     ecut=    60.00 Ry     beta= 0.70
     Davidson diagonalization with overlap
     ethr =  2.14E-12,  avg # of iterations =  3.0

     negative rho (up, down):  3.599E-03 0.000E+00

     total cpu time spent up to now is       96.6 secs

     total energy              =   -3348.27789778 Ry
     estimated scf accuracy    <          2.3E-10 Ry

     iteration # 19     ecut=    60.00 Ry     beta= 0.70
     Davidson diagonalization with overlap
     ethr =  1.00E-13,  avg # of iterations =  4.0

     negative rho (up, down):  3.599E-03 0.000E+00

     total cpu time spent up to now is      101.8 secs

     total energy              =   -3348.27789778 Ry
     estimated scf accuracy    <          2.5E-10 Ry

     iteration # 20     ecut=    60.00 Ry     beta= 0.70
     Davidson diagonalization with overlap
     ethr =  1.00E-13,  avg # of iterations =  2.0

     negative rho (up, down):  3.599E-03 0.000E+00

     total cpu time spent up to now is      105.9 secs

     total energy              =   -3348.27789778 Ry
     estimated scf accuracy    <          1.1E-10 Ry

     iteration # 21     ecut=    60.00 Ry     beta= 0.70
     Davidson diagonalization with overlap
     ethr =  1.00E-13,  avg # of iterations =  1.0

     negative rho (up, down):  3.599E-03 0.000E+00

     total cpu time spent up to now is      109.5 secs

     End of self-consistent calculation

          k = 0.0000 0.0000 0.0000 (153454 PWs)   bands (ev):

   -25.9711 -24.9878 -24.9174 -24.7038 -24.6587 -24.5454 -24.3674 -24.3499
   -24.3404 -24.3112 -24.2564 -24.1632 -24.1283 -24.1000 -24.0079 -23.9832
   -23.9660 -23.9585 -23.9127 -23.8743 -23.8345 -23.8227 -23.7920 -23.7631
   -23.7300 -23.6711 -23.6369 -23.6220 -23.6055 -23.5909 -23.5546 -23.5186
   -23.4989 -23.4806 -23.4703 -23.4315 -23.3863 -23.3423 -23.2964 -23.2786
   -23.2689 -23.2574 -23.2228 -23.1695 -23.0962 -23.0857 -23.0733 -22.9523
   -22.9325 -22.8847 -22.8825 -22.8367 -22.8164 -22.7328 -22.7179 -22.6930
   -22.6786 -22.6502 -22.6463 -22.6275 -22.6213 -22.5578 -22.4920 -22.4428
   -22.4107 -22.3644 -22.2729 -22.2555 -22.2196 -22.2069 -21.9789 -21.9450
   -21.2880 -21.1997 -21.1058 -20.7861 -14.0177 -13.1762 -13.1316 -12.9917
   -12.8968 -12.7254 -12.6619 -12.5380 -12.5022 -12.3937 -12.3702 -12.3260
   -12.2807 -12.2430 -12.2382 -12.1602 -12.1507 -12.1456 -12.0555 -12.0528
   -12.0358 -12.0023 -11.9850 -11.9601 -11.8857 -11.8817 -11.8609 -11.8364
   -11.7774 -11.7676 -11.7516 -11.7228 -11.6632 -11.6496 -11.6254 -11.6185
   -11.5945 -11.5745 -11.5552 -11.5059 -11.4955 -11.4625 -11.4406 -11.4305
   -11.3905 -11.3770 -11.3284 -11.2662 -11.2335 -11.2271 -11.1823 -11.1680
   -11.1516 -11.1218 -11.0451 -11.0371 -11.0306 -10.9812 -10.9548 -10.9374
   -10.9163 -10.8795 -10.7439 -10.7241 -10.6927 -10.6655 -10.6430 -10.6301
   -10.6004 -10.3951 -10.1882 -10.1625  -9.9640  -9.9465  -9.6678  -9.4412
    -9.3959  -9.3046  -9.2799  -9.2541  -9.2316  -9.1849  -9.1023  -9.0244
    -8.8937  -8.8585  -8.8461  -8.8041  -8.7470  -8.7125  -8.6348  -8.5884
    -8.5312  -8.4984  -8.4169  -8.4108  -8.3736  -8.3421  -8.2858  -8.2580
    -8.2303  -8.2152  -8.1686  -8.1300  -8.0855  -8.0586  -8.0494  -7.9939
    -7.9915  -7.9300  -7.9197  -7.8833  -7.8677  -7.8310  -7.7561  -7.7092
    -7.6839  -7.6691  -7.6256  -7.5832  -7.5107  -7.4564  -7.4253  -7.3943
    -7.3648  -7.3277  -7.3085  -7.2677  -7.2132  -7.2010  -7.1312  -7.0664
    -7.0602  -7.0536  -6.9884  -6.9834  -6.9737  -6.9126  -6.8753  -6.8511
    -6.8322  -6.7848  -6.7716  -6.7310  -6.7029  -6.6545  -6.5942  -6.5773
    -6.5619  -6.5160  -6.4525  -6.4442  -6.4027  -6.3999  -6.3848  -6.3788
    -6.3457  -6.3020  -6.2894  -6.2846  -6.2241  -6.1972  -6.1648  -6.1570
    -6.1341  -6.1200  -6.1130  -6.0798  -6.0627  -6.0534  -6.0390  -6.0125
    -5.9709  -5.9494  -5.8981  -5.8865  -5.8740  -5.8409  -5.8064  -5.7903
    -5.7825  -5.7686  -5.7501  -5.7134  -5.7128  -5.6884  -5.6637  -5.6186
    -5.5730  -5.5623  -5.5490  -5.5387  -5.5118  -5.5067  -5.4578  -5.4351
    -5.3619  -5.3425  -5.3337  -5.2875  -5.2812  -5.2679  -5.2430  -5.2334
    -5.1949  -5.1798  -5.0984  -5.0668  -5.0631  -5.0048  -4.9709  -4.9280
    -4.8900  -4.8761  -4.8727  -4.7609  -4.7092  -4.7075  -4.6825  -4.6560
    -4.6424  -4.5983  -4.4769  -3.9701  -3.7212  -3.6457  -3.4798  -3.2477

     occupation numbers 
     1.0000   1.0000   1.0000   1.0000   1.0000   1.0000   1.0000   1.0000
     1.0000   1.0000   1.0000   1.0000   1.0000   1.0000   1.0000   1.0000
     1.0000   1.0000   1.0000   1.0000   1.0000   1.0000   1.0000   1.0000
     1.0000   1.0000   1.0000   1.0000   1.0000   1.0000   1.0000   1.0000
     1.0000   1.0000   1.0000   1.0000   1.0000   1.0000   1.0000   1.0000
     1.0000   1.0000   1.0000   1.0000   1.0000   1.0000   1.0000   1.0000
     1.0000   1.0000   1.0000   1.0000   1.0000   1.0000   1.0000   1.0000
     1.0000   1.0000   1.0000   1.0000   1.0000   1.0000   1.0000   1.0000
     1.0000   1.0000   1.0000   1.0000   1.0000   1.0000   1.0000   1.0000
     1.0000   1.0000   1.0000   1.0000   1.0000   1.0000   1.0000   1.0000
     1.0000   1.0000   1.0000   1.0000   1.0000   1.0000   1.0000   1.0000
     1.0000   1.0000   1.0000   1.0000   1.0000   1.0000   1.0000   1.0000
     1.0000   1.0000   1.0000   1.0000   1.0000   1.0000   1.0000   1.0000
     1.0000   1.0000   1.0000   1.0000   1.0000   1.0000   1.0000   1.0000
     1.0000   1.0000   1.0000   1.0000   1.0000   1.0000   1.0000   1.0000
     1.0000   1.0000   1.0000   1.0000   1.0000   1.0000   1.0000   1.0000
     1.0000   1.0000   1.0000   1.0000   1.0000   1.0000   1.0000   1.0000
     1.0000   1.0000   1.0000   1.0000   1.0000   1.0000   1.0000   1.0000
     1.0000   1.0000   1.0000   1.0000   1.0000   1.0000   1.0000   1.0000
     1.0000   1.0000   1.0000   1.0000   1.0000   1.0000   1.0000   1.0000
     1.0000   1.0000   1.0000   1.0000   1.0000   1.0000   1.0000   1.0000
     1.0000   1.0000   1.0000   1.0000   1.0000   1.0000   1.0000   1.0000
     1.0000   1.0000   1.0000   1.0000   1.0000   1.0000   1.0000   1.0000
     1.0000   1.0000   1.0000   1.0000   1.0000   1.0000   1.0000   1.0000
     1.0000   1.0000   1.0000   1.0000   1.0000   1.0000   1.0000   1.0000
     1.0000   1.0000   1.0000   1.0000   1.0000   1.0000   1.0000   1.0000
     1.0000   1.0000   1.0000   1.0000   1.0000   1.0000   1.0000   1.0000
     1.0000   1.0000   1.0000   1.0000   1.0000   1.0000   1.0000   1.0000
     1.0000   1.0000   1.0000   1.0000   1.0000   1.0000   1.0000   1.0000
     1.0000   1.0000   1.0000   1.0000   1.0000   1.0000   1.0000   1.0000
     1.0000   1.0000   1.0000   1.0000   1.0000   1.0000   1.0000   1.0000
     1.0000   1.0000   1.0000   1.0000   1.0000   1.0000   1.0000   1.0000
     1.0000   1.0000   1.0000   1.0000   1.0000   1.0000   1.0000   1.0000
     1.0000   1.0000   1.0000   1.0000   1.0000   1.0000   1.0000   1.0000
     1.0000   1.0000   1.0000   1.0000   1.0000   1.0000   1.0000   1.0000
     1.0000   1.0000   1.0000   1.0000   1.0000   1.0000   1.0000   1.0000
     1.0000   1.0000   1.0000   1.0000   1.0000   1.0000   1.0000   1.0000
     1.0000   1.0000   1.0000   1.0000   1.0000   1.0000   1.0000   1.0000

     highest occupied level (ev):    -3.2477

!    total energy              =   -3348.27789778 Ry
     estimated scf accuracy    <          6.3E-12 Ry

     The total energy is the sum of the following terms:
     one-electron contribution =   -9768.68567663 Ry
     hartree contribution      =    5040.35740578 Ry
     xc contribution           =    -671.37512942 Ry
     ewald contribution        =    2773.82203949 Ry
     one-center paw contrib.   =    -722.39653700 Ry
      -> PAW hartree energy AE =      56.44116275 Ry
      -> PAW hartree energy PS =     -56.17266068 Ry
      -> PAW xc energy AE      =     -33.98586690 Ry
      -> PAW xc energy PS      =      14.70610538 Ry
      -> total E_H with PAW    =    5040.62590784 Ry
      -> total E_XC with PAW   =    -690.65489094 Ry

     convergence has been achieved in  21 iterations

     negative rho (up, down):  3.599E-03 0.000E+00

     Forces acting on atoms (cartesian axes, Ry/au):

     atom    1 type  2   force =     0.00422242   -0.02426900    0.00454369
     atom    2 type  1   force =    -0.01077329    0.04738163   -0.03670129
     atom    3 type  1   force =     0.00027852   -0.01423727    0.03659267
     atom    4 type  2   force =    -0.00228967    0.01778596    0.02572032
     atom    5 type  1   force =    -0.02772143   -0.02331101   -0.04971083
     atom    6 type  1   force =     0.02235547    0.01936652    0.03214660
     atom    7 type  2   force =     0.00065125    0.02256025    0.01635538
     atom    8 type  1   force =     0.00071800   -0.04392454   -0.04034920
     atom    9 type  1   force =    -0.00827701    0.02626245    0.03875113
     atom   10 type  2   force =     0.02824447   -0.01067599    0.02881580
     atom   11 type  1   force =    -0.05390088   -0.01705288   -0.01389073
     atom   12 type  1   force =     0.03639629    0.02172002    0.00590920
     atom   13 type  2   force =     0.00265223   -0.06135096   -0.01809007
     atom   14 type  1   force =     0.01192854    0.00752487    0.00293493
     atom   15 type  1   force =    -0.00741192    0.05451254    0.01443466
     atom   16 type  2   force =    -0.00415791   -0.00075637   -0.04338178
     atom   17 type  1   force =    -0.02109604    0.00447757    0.02405877
     atom   18 type  1   force =     0.00986249    0.00558355    0.01355828
     atom   19 type  2   force =    -0.01345244    0.03306149    0.02022081
     atom   20 type  1   force =     0.01616147    0.02349548    0.00506068
     atom   21 type  1   force =     0.00519748   -0.06015135   -0.01132538
     atom   22 type  2   force =    -0.00217669   -0.01406808    0.00573238
     atom   23 type  1   force =    -0.00202894    0.02000387   -0.03194007
     atom   24 type  1   force =    -0.02174383   -0.03857831    0.01940119
     atom   25 type  2   force =     0.00579662    0.00276593   -0.00069952
     atom   26 type  1   force =    -0.03085261    0.00723296   -0.01323357
     atom   27 type  1   force =     0.02926192   -0.00194486    0.00425886
     atom   28 type  2   force =    -0.01278166   -0.02130517   -0.00641087
     atom   29 type  1   force =     0.00079620    0.03255068   -0.00006159
     atom   30 type  1   force =     0.02230569   -0.03063596   -0.01282246
     atom   31 type  2   force =    -0.00857533    0.01255604    0.00382066
     atom   32 type  1   force =    -0.01954356    0.00094445   -0.01165950
     atom   33 type  1   force =     0.03655555   -0.02609878    0.02209126
     atom   34 type  2   force =     0.01788163    0.00638090    0.01370956
     atom   35 type  1   force =    -0.01957287   -0.02986176    0.01788704
     atom   36 type  1   force =     0.01156103    0.01872117   -0.02506371
     atom   37 type  2   force =    -0.02081125    0.02698767    0.01179669
     atom   38 type  1   force =     0.03815694   -0.01243063   -0.01864744
     atom   39 type  1   force =    -0.00452103   -0.00848184    0.00438521
     atom   40 type  2   force =     0.03368436    0.01821652    0.01348136
     atom   41 type  1   force =    -0.01256410    0.02295287   -0.04994736
     atom   42 type  1   force =    -0.03325964   -0.03857697    0.03623708
     atom   43 type  2   force =    -0.02019182    0.01827430    0.02425214
     atom   44 type  1   force =     0.01279338   -0.01166818   -0.02860273
     atom   45 type  1   force =    -0.00955160   -0.00733017    0.01379096
     atom   46 type  2   force =    -0.00448288   -0.02909133    0.01620242
     atom   47 type  1   force =    -0.00599148    0.01136082   -0.05769967
     atom   48 type  1   force =     0.01201163    0.02376249    0.04702650
     atom   49 type  2   force =    -0.02427234   -0.00684699   -0.03082393
     atom   50 type  1   force =     0.05935188    0.00150970    0.00232885
     atom   51 type  1   force =    -0.03890057    0.01146982    0.03337059
     atom   52 type  2   force =    -0.01312549    0.00546880    0.02334002
     atom   53 type  1   force =     0.03022209   -0.01392642    0.00659652
     atom   54 type  1   force =    -0.02231910    0.00193902   -0.00178673
     atom   55 type  2   force =     0.02259509    0.00824433   -0.04406918
     atom   56 type  1   force =     0.01367157    0.01306215    0.05596883
     atom   57 type  1   force =    -0.02771384   -0.02081165   -0.01280467
     atom   58 type  2   force =    -0.01291161   -0.00690320    0.02546315
     atom   59 type  1   force =    -0.01591844   -0.00029018   -0.01635029
     atom   60 type  1   force =     0.02257067   -0.00103878    0.01168603
     atom   61 type  2   force =     0.02492777    0.01759751   -0.01473677
     atom   62 type  1   force =     0.04219620    0.00392271   -0.00100955
     atom   63 type  1   force =    -0.05221315   -0.02409880    0.01112932
     atom   64 type  2   force =    -0.00124282   -0.01004462    0.02309927
     atom   65 type  1   force =    -0.03119943   -0.00685219    0.03267073
     atom   66 type  1   force =     0.04454993    0.01022934   -0.04074232
     atom   67 type  2   force =    -0.01312614   -0.00724702   -0.01086832
     atom   68 type  1   force =     0.00064242   -0.01944549   -0.04233202
     atom   69 type  1   force =     0.00003803    0.03735216    0.04464736
     atom   70 type  2   force =    -0.01887604   -0.01570161   -0.01647737
     atom   71 type  1   force =    -0.00441741    0.00241163   -0.01377885
     atom   72 type  1   force =     0.00358324    0.01316598    0.02502300
     atom   73 type  2   force =     0.02546049   -0.01465741    0.03448527
     atom   74 type  1   force =     0.01175636    0.00996313    0.01986719
     atom   75 type  1   force =    -0.02812353    0.01300186   -0.05004134
     atom   76 type  2   force =     0.02989162    0.02746601    0.01861448
     atom   77 type  1   force =     0.01129081   -0.01879173    0.01697064
     atom   78 type  1   force =    -0.04562325   -0.01668713   -0.02286209
     atom   79 type  2   force =    -0.01457869   -0.00610411   -0.02916367
     atom   80 type  1   force =     0.03397989    0.01971461    0.04742988
     atom   81 type  1   force =    -0.01241473   -0.00885395   -0.03351984
     atom   82 type  2   force =    -0.00231272   -0.00898908   -0.02079216
     atom   83 type  1   force =     0.01845962   -0.02639660   -0.00153206
     atom   84 type  1   force =    -0.02307947    0.03292398    0.01411179
     atom   85 type  2   force =     0.02796569    0.01467569    0.00758484
     atom   86 type  1   force =    -0.00958686   -0.01322762   -0.01417620
     atom   87 type  1   force =    -0.03799095    0.00787614   -0.00186304
     atom   88 type  2   force =    -0.02872289   -0.02007830   -0.04599124
     atom   89 type  1   force =     0.05268029    0.00272208   -0.01648988
     atom   90 type  1   force =    -0.03231903    0.01361249    0.04337350
     atom   91 type  2   force =     0.00559353   -0.01734573   -0.01210333
     atom   92 type  1   force =     0.02834855    0.02201952    0.04973370
     atom   93 type  1   force =    -0.03674634    0.00089399   -0.02561806
     atom   94 type  2   force =     0.01077914    0.00431024    0.03923822
     atom   95 type  1   force =     0.03142322   -0.03061192   -0.02902309
     atom   96 type  1   force =    -0.04636316    0.03321449   -0.00577328
     atom   97 type  2   force =    -0.00319718   -0.00554112   -0.01164805
     atom   98 type  1   force =     0.00283428    0.00112304    0.01139156
     atom   99 type  1   force =    -0.00431921    0.00201769   -0.00797823
     atom  100 type  2   force =    -0.02074552    0.00393830   -0.02012977
     atom  101 type  1   force =     0.00344247    0.01834056   -0.00904532
     atom  102 type  1   force =     0.02907686   -0.01187656    0.01390702
     atom  103 type  2   force =     0.00774319    0.03566397    0.00599690
     atom  104 type  1   force =     0.02234767    0.01511881   -0.03856732
     atom  105 type  1   force =    -0.02528728   -0.02222209    0.03318050
     atom  106 type  2   force =     0.01266325   -0.01375704    0.00100545
     atom  107 type  1   force =     0.00561467    0.01309894    0.02471342
     atom  108 type  1   force =    -0.01849210   -0.01353332   -0.01348514
     atom  109 type  2   force =    -0.01262843    0.03560759    0.00334080
     atom  110 type  1   force =     0.00984426   -0.03931039   -0.00268432
     atom  111 type  1   force =     0.00930703    0.00729624    0.01858245
     atom  112 type  2   force =     0.00706328    0.03089284   -0.01916851
     atom  113 type  1   force =    -0.02482859    0.03160582    0.02883048
     atom  114 type  1   force =     0.01980000   -0.05508605   -0.01736152
     atom  115 type  2   force =     0.00869390    0.01611052   -0.00763081
     atom  116 type  1   force =    -0.01478291    0.02610955   -0.01385121
     atom  117 type  1   force =    -0.00625919   -0.02977446    0.03936151
     atom  118 type  2   force =     0.02584346    0.00211044    0.00029362
     atom  119 type  1   force =    -0.03588114   -0.03043952    0.04563773
     atom  120 type  1   force =     0.00163015    0.01586653   -0.05169401
     atom  121 type  2   force =    -0.05146121   -0.01830453    0.00002427
     atom  122 type  1   force =     0.05170723    0.02050639    0.00288249
     atom  123 type  1   force =    -0.00506985   -0.01624595    0.00571805
     atom  124 type  2   force =     0.02036287    0.01733307    0.00816662
     atom  125 type  1   force =     0.01728407   -0.04214366   -0.03890307
     atom  126 type  1   force =    -0.03597762    0.01714713    0.02912543
     atom  127 type  2   force =     0.01808363    0.03406642   -0.02642597
     atom  128 type  1   force =     0.00376478    0.01713072   -0.01133093
     atom  129 type  1   force =    -0.02563378   -0.04359077    0.03160968
     atom  130 type  2   force =    -0.03334442    0.00010448    0.00545049
     atom  131 type  1   force =     0.00386085    0.00391246    0.03626218
     atom  132 type  1   force =     0.03598579    0.00569148   -0.03740162
     atom  133 type  2   force =    -0.01226921    0.00113423   -0.01937928
     atom  134 type  1   force =     0.03107117   -0.01034923    0.03847405
     atom  135 type  1   force =    -0.00462521    0.01394665   -0.02083802
     atom  136 type  2   force =     0.01218860   -0.01108804    0.01739220
     atom  137 type  1   force =     0.01479344    0.01503324   -0.05732455
     atom  138 type  1   force =    -0.01766331    0.00090677    0.04018362
     atom  139 type  2   force =    -0.04247360   -0.00161574    0.03748353
     atom  140 type  1   force =    -0.01096054    0.00864620   -0.00565943
     atom  141 type  1   force =     0.04208771   -0.00200168   -0.04109679
     atom  142 type  2   force =    -0.01410543    0.01523919   -0.04011965
     atom  143 type  1   force =    -0.01007390    0.03971936    0.03213330
     atom  144 type  1   force =     0.01917672   -0.05348452   -0.00403375
     atom  145 type  2   force =     0.01875580   -0.01659721   -0.03715240
     atom  146 type  1   force =    -0.02797415    0.05014035   -0.00592641
     atom  147 type  1   force =     0.01189092   -0.03926598    0.03885732
     atom  148 type  2   force =     0.01513371    0.03133094    0.00910734
     atom  149 type  1   force =    -0.03664956    0.02446395   -0.01286806
     atom  150 type  1   force =     0.01264449   -0.05584719   -0.00386377
     atom  151 type  2   force =     0.04071025    0.05272416   -0.01359429
     atom  152 type  1   force =     0.01896767   -0.02977070    0.03948193
     atom  153 type  1   force =    -0.03584372   -0.00422286   -0.03655219
     atom  154 type  2   force =    -0.03613444   -0.00134502    0.00734596
     atom  155 type  1   force =     0.03604843    0.01410386    0.03937375
     atom  156 type  1   force =     0.00733859   -0.01638836   -0.04943246
     atom  157 type  2   force =     0.01128399   -0.02875317    0.00576174
     atom  158 type  1   force =    -0.01970757    0.03765443    0.04116637
     atom  159 type  1   force =     0.00795073   -0.01504890   -0.04564699
     atom  160 type  2   force =     0.03956502   -0.00876896   -0.00420978
     atom  161 type  1   force =    -0.02781119   -0.03718096   -0.03073339
     atom  162 type  1   force =    -0.00299578    0.04760873    0.03222634
     atom  163 type  2   force =    -0.01516852    0.00031686   -0.02519992
     atom  164 type  1   force =     0.04841752    0.02074001    0.00558271
     atom  165 type  1   force =    -0.02982925   -0.00893753    0.02277342
     atom  166 type  2   force =     0.02152068   -0.00860356    0.01008961
     atom  167 type  1   force =    -0.01714066   -0.02803996   -0.04780743
     atom  168 type  1   force =    -0.00406948    0.04178169    0.03623542
     atom  169 type  2   force =    -0.01303667    0.01333900    0.00773615
     atom  170 type  1   force =    -0.01919953    0.02737840    0.00112250
     atom  171 type  1   force =     0.01876145   -0.06065306   -0.01070429
     atom  172 type  2   force =     0.02788928   -0.01481305   -0.00186580
     atom  173 type  1   force =    -0.00868666   -0.03275693    0.02644326
     atom  174 type  1   force =    -0.01154750    0.02917065   -0.02317605
     atom  175 type  2   force =     0.01181512    0.01399955   -0.03418199
     atom  176 type  1   force =     0.00843571   -0.04942228   -0.02007706
     atom  177 type  1   force =    -0.00875427    0.02903550    0.04761647
     atom  178 type  2   force =     0.00725357    0.03031798   -0.01409830
     atom  179 type  1   force =    -0.04701641   -0.00140852   -0.01091449
     atom  180 type  1   force =     0.04776779   -0.02839562    0.02265164
     atom  181 type  2   force =     0.04170676    0.00387240   -0.00213537
     atom  182 type  1   force =     0.01940281    0.00193770   -0.00008573
     atom  183 type  1   force =    -0.05042291   -0.01252782   -0.01286925
     atom  184 type  2   force =    -0.02616940   -0.00356770   -0.03464603
     atom  185 type  1   force =     0.01950647   -0.03955477    0.03223456
     atom  186 type  1   force =     0.00171776    0.03287096   -0.01688283
     atom  187 type  2   force =     0.00254634    0.01153569    0.02687742
     atom  188 type  1   force =    -0.02711835   -0.03566651   -0.01811200
     atom  189 type  1   force =     0.01471891    0.02366522   -0.00864324
     atom  190 type  2   force =     0.04267366   -0.01400470   -0.00863733
     atom  191 type  1   force =     0.00883961   -0.02343627    0.00260073
     atom  192 type  1   force =    -0.05075918    0.03175282    0.00346939
     atom  193 type  2   force =    -0.01442146   -0.01757107   -0.02127695
     atom  194 type  1   force =    -0.04465141    0.00716203    0.01457236
     atom  195 type  1   force =     0.03765585    0.00095955   -0.00938904
     atom  196 type  2   force =    -0.02158533    0.00364589   -0.02276437
     atom  197 type  1   force =     0.02711529   -0.00760769    0.03915099
     atom  198 type  1   force =    -0.01063646    0.00386760   -0.00968120
     atom  199 type  2   force =     0.02779107   -0.01652843   -0.00186819
     atom  200 type  1   force =    -0.01407572   -0.02474467   -0.01517459
     atom  201 type  1   force =    -0.00486220    0.03517757    0.01733201
     atom  202 type  2   force =    -0.00842291   -0.00580264   -0.03563825
     atom  203 type  1   force =    -0.01636775   -0.02008569    0.03050894
     atom  204 type  1   force =     0.02901311    0.03053362   -0.01395590
     atom  205 type  2   force =     0.01867082   -0.02694553   -0.00092532
     atom  206 type  1   force =    -0.04794148    0.03498450    0.01148435
     atom  207 type  1   force =     0.02888541   -0.01472712   -0.00217215
     atom  208 type  2   force =     0.02542754   -0.02146935    0.02889870
     atom  209 type  1   force =     0.02575776    0.01247305    0.00386319
     atom  210 type  1   force =    -0.04470982    0.01352157   -0.03456462
     atom  211 type  2   force =     0.00543971    0.00198776   -0.01797738
     atom  212 type  1   force =    -0.00999986    0.03486848    0.02611233
     atom  213 type  1   force =    -0.00201169   -0.03274001    0.00210286
     atom  214 type  2   force =     0.02619637    0.00595596    0.01980579
     atom  215 type  1   force =    -0.02635309    0.00657444    0.02792400
     atom  216 type  1   force =    -0.00718805   -0.01346327   -0.04597326
     atom  217 type  2   force =     0.00224349   -0.00840435   -0.00149870
     atom  218 type  1   force =     0.03804104   -0.01316717    0.02709207
     atom  219 type  1   force =    -0.02826877    0.00144832   -0.03196465
     atom  220 type  2   force =    -0.01138517    0.00721591    0.02190384
     atom  221 type  1   force =     0.01689865   -0.03955606   -0.01117317
     atom  222 type  1   force =    -0.01428920    0.05308546   -0.01226070
     atom  223 type  2   force =     0.01770951    0.00801051    0.04132337
     atom  224 type  1   force =    -0.00652433    0.01226353   -0.05090392
     atom  225 type  1   force =     0.00391518   -0.01062390    0.03355144
     atom  226 type  2   force =    -0.00459861   -0.01145828    0.04470269
     atom  227 type  1   force =    -0.01582714   -0.01650901   -0.04520428
     atom  228 type  1   force =     0.03031638    0.03339285   -0.01503188
     The non-local contrib.  to forces
     atom    1 type  2   force =     1.25280752   -1.33575197   -1.11099823
     atom    2 type  1   force =    -0.04740740    0.07657583   -0.03655481
     atom    3 type  1   force =    -0.01638412   -0.01554740    0.09360712
     atom    4 type  2   force =     1.93382641   -0.14402517    0.02939910
     atom    5 type  1   force =    -0.06185582   -0.03477863   -0.06705518
     atom    6 type  1   force =    -0.04383211    0.05156359    0.06934408
     atom    7 type  2   force =     0.59493829    1.89839384   -0.79526637
     atom    8 type  1   force =    -0.00867498   -0.08284425   -0.05013694
     atom    9 type  1   force =    -0.02085472   -0.00887566    0.09262181
     atom   10 type  2   force =     0.64664602   -1.12391987    1.54284233
     atom   11 type  1   force =    -0.08979034   -0.00363267   -0.03896556
     atom   12 type  1   force =     0.05608222    0.07108934   -0.03840500
     atom   13 type  2   force =    -1.23271067   -1.54127762    0.35756176
     atom   14 type  1   force =     0.08292160   -0.02389667   -0.04103274
     atom   15 type  1   force =    -0.00651038    0.09397256    0.02268003
     atom   16 type  2   force =    -0.52442314   -1.06940059   -1.35458256
     atom   17 type  1   force =    -0.02612575   -0.00491296    0.09415308
     atom   18 type  1   force =     0.06805621    0.06704753   -0.01716886
     atom   19 type  2   force =     0.00883388    1.18506723   -1.63937442
     atom   20 type  1   force =    -0.01588375    0.04178516    0.08378939
     atom   21 type  1   force =     0.00289794   -0.09729207    0.00477173
     atom   22 type  2   force =     1.78883473   -0.19826011    0.43583156
     atom   23 type  1   force =    -0.03390190    0.05915082   -0.06946571
     atom   24 type  1   force =    -0.06755260   -0.05325322    0.04130233
     atom   25 type  2   force =     0.13682933    0.86300068    1.61398054
     atom   26 type  1   force =    -0.08414762   -0.01228432   -0.04752375
     atom   27 type  1   force =     0.07389532   -0.04230552   -0.04336962
     atom   28 type  2   force =    -1.84399546   -0.32143639    0.02889023
     atom   29 type  1   force =     0.04527577    0.08537050    0.01717231
     atom   30 type  1   force =     0.06223517   -0.07374729   -0.01850676
     atom   31 type  2   force =     0.93839528    1.64489589   -0.41032238
     atom   32 type  1   force =    -0.09656758   -0.00927392   -0.01668258
     atom   33 type  1   force =     0.04015620   -0.07925600    0.04273633
     atom   34 type  2   force =    -1.10581997   -0.48995777   -1.33253772
     atom   35 type  1   force =     0.00685492   -0.04702474    0.08514502
     atom   36 type  1   force =     0.06024262    0.07374733   -0.00621067
     atom   37 type  2   force =    -1.27021696    0.72779936   -1.02232250
     atom   38 type  1   force =     0.08822096   -0.03564720   -0.02733345
     atom   39 type  1   force =    -0.01470760   -0.00543395    0.09521854
     atom   40 type  2   force =     1.68362050    0.93959760    1.12175286
     atom   41 type  1   force =    -0.02515458    0.03127310   -0.08963572
     atom   42 type  1   force =    -0.05106753   -0.07600820    0.03214617
     atom   43 type  2   force =     0.82877882    0.05035604    1.46591891
     atom   44 type  1   force =     0.03653443   -0.02176888   -0.08897918
     atom   45 type  1   force =    -0.09216537    0.02509467   -0.00290290
     atom   46 type  2   force =    -0.09231480   -2.18269779    0.32676206
     atom   47 type  1   force =    -0.00209098    0.04280420   -0.08770227
     atom   48 type  1   force =     0.01104072    0.06265067    0.07572655
     atom   49 type  2   force =    -0.86700496    0.44539830   -1.77963827
     atom   50 type  1   force =     0.09601087    0.00263927    0.01833850
     atom   51 type  1   force =    -0.05389470   -0.03240834    0.07599716
     atom   52 type  2   force =     0.25959891    1.38191885   -1.02069497
     atom   53 type  1   force =     0.06981353   -0.05785940    0.03524249
     atom   54 type  1   force =    -0.08521638   -0.01766024    0.03771856
     atom   55 type  2   force =     1.19678811    0.88694519   -1.60493703
     atom   56 type  1   force =     0.01493645    0.01158325    0.09501623
     atom   57 type  1   force =    -0.07927564   -0.05502040   -0.02317357
     atom   58 type  2   force =    -0.22864374    0.72546492    1.66181005
     atom   59 type  1   force =    -0.06974251    0.00564912   -0.06869750
     atom   60 type  1   force =     0.08178160   -0.04630334   -0.03142315
     atom   61 type  2   force =     0.20584889    1.01506915   -1.96411529
     atom   62 type  1   force =     0.07537803   -0.00461834    0.06073013
     atom   63 type  1   force =    -0.08017385   -0.04269673    0.03304782
     atom   64 type  2   force =     0.94183842   -0.63802702    1.78423294
     atom   65 type  1   force =    -0.09678729   -0.00778705   -0.01282644
     atom   66 type  1   force =     0.04644704    0.03686710   -0.07759410
     atom   67 type  2   force =     1.07303462   -1.71587634    0.31375557
     atom   68 type  1   force =    -0.05611536    0.01008286   -0.07766010
     atom   69 type  1   force =    -0.00439018    0.07554746    0.06185632
     atom   70 type  2   force =    -0.76112595    1.46822141   -0.59783292
     atom   71 type  1   force =    -0.01530937   -0.08191697   -0.04601437
     atom   72 type  1   force =     0.06119723   -0.00914804    0.07474796
     atom   73 type  2   force =    -0.94576503   -0.65367417    1.57914767
     atom   74 type  1   force =     0.09640477    0.00592877    0.00525761
     atom   75 type  1   force =    -0.03564374    0.02846743   -0.08589859
     atom   76 type  2   force =     0.50511389    1.94830490    0.34062273
     atom   77 type  1   force =     0.06208081   -0.06962276    0.02839702
     atom   78 type  1   force =    -0.08298641   -0.03427806   -0.03967780
     atom   79 type  2   force =    -1.94538586   -0.50618736    0.69519793
[...]
     atom   20 type  1   force =    -0.00000000   -0.00000001   -0.00000005
     atom   21 type  1   force =    -0.00000001    0.00000008   -0.00000000
     atom   22 type  2   force =     0.00000003   -0.00000007    0.00000005
     atom   23 type  1   force =    -0.00000001    0.00000001   -0.00000002
     atom   24 type  1   force =    -0.00000003   -0.00000002    0.00000001
     atom   25 type  2   force =    -0.00000005    0.00000019    0.00000024
     atom   26 type  1   force =     0.00000003    0.00000002    0.00000003
     atom   27 type  1   force =    -0.00000003    0.00000003    0.00000002
     atom   28 type  2   force =    -0.00000004   -0.00000001    0.00000004
     atom   29 type  1   force =     0.00000000   -0.00000001    0.00000000
     atom   30 type  1   force =     0.00000001   -0.00000000    0.00000000
     atom   31 type  2   force =     0.00000010    0.00000004   -0.00000001
     atom   32 type  1   force =     0.00000004    0.00000000    0.00000001
     atom   33 type  1   force =    -0.00000002    0.00000002   -0.00000002
     atom   34 type  2   force =    -0.00000008   -0.00000008   -0.00000012
     atom   35 type  1   force =     0.00000000    0.00000001   -0.00000003
     atom   36 type  1   force =    -0.00000000   -0.00000002   -0.00000000
     atom   37 type  2   force =    -0.00000004    0.00000002   -0.00000000
     atom   38 type  1   force =    -0.00000000   -0.00000001   -0.00000000
     atom   39 type  1   force =    -0.00000000    0.00000000    0.00000002
     atom   40 type  2   force =     0.00000044    0.00000029    0.00000016
     atom   41 type  1   force =     0.00000007   -0.00000001    0.00000012
     atom   42 type  1   force =     0.00000011    0.00000010   -0.00000003
     atom   43 type  2   force =     0.00000001   -0.00000002    0.00000006
     atom   44 type  1   force =    -0.00000001   -0.00000001    0.00000001
     atom   45 type  1   force =     0.00000000   -0.00000000   -0.00000000
     atom   46 type  2   force =    -0.00000004   -0.00000044    0.00000026
     atom   47 type  1   force =    -0.00000000   -0.00000008    0.00000011
     atom   48 type  1   force =    -0.00000002   -0.00000011   -0.00000007
     atom   49 type  2   force =    -0.00000018    0.00000004   -0.00000023
     atom   50 type  1   force =    -0.00000006    0.00000000   -0.00000002
     atom   51 type  1   force =     0.00000001   -0.00000001   -0.00000005
     atom   52 type  2   force =    -0.00000003    0.00000019   -0.00000011
     atom   53 type  1   force =    -0.00000003    0.00000004   -0.00000002
     atom   54 type  1   force =     0.00000002    0.00000003   -0.00000001
     atom   55 type  2   force =     0.00000015    0.00000008   -0.00000045
     atom   56 type  1   force =     0.00000001    0.00000000   -0.00000009
     atom   57 type  1   force =     0.00000006    0.00000004   -0.00000003
     atom   58 type  2   force =    -0.00000016    0.00000006    0.00000010
     atom   59 type  1   force =     0.00000000   -0.00000000    0.00000004
     atom   60 type  1   force =    -0.00000005    0.00000000    0.00000002
     atom   61 type  2   force =     0.00000010    0.00000014   -0.00000025
     atom   62 type  1   force =    -0.00000006    0.00000002   -0.00000006
     atom   63 type  1   force =     0.00000009    0.00000005   -0.00000005
     atom   64 type  2   force =     0.00000001   -0.00000006    0.00000023
     atom   65 type  1   force =     0.00000001    0.00000001    0.00000001
     atom   66 type  1   force =    -0.00000001   -0.00000001    0.00000004
     atom   67 type  2   force =     0.00000017   -0.00000017    0.00000005
     atom   68 type  1   force =     0.00000006   -0.00000001    0.00000008
     atom   69 type  1   force =     0.00000003   -0.00000007   -0.00000005
     atom   70 type  2   force =     0.00000003    0.00000009   -0.00000004
     atom   71 type  1   force =     0.00000001    0.00000005    0.00000003
     atom   72 type  1   force =    -0.00000002    0.00000000   -0.00000004
     atom   73 type  2   force =     0.00000008   -0.00000014    0.00000033
     atom   74 type  1   force =    -0.00000003   -0.00000003    0.00000003
     atom   75 type  1   force =     0.00000003   -0.00000003    0.00000008
     atom   76 type  2   force =     0.00000005    0.00000011    0.00000010
     atom   77 type  1   force =    -0.00000002    0.00000005   -0.00000001
     atom   78 type  1   force =     0.00000006    0.00000003    0.00000003
     atom   79 type  2   force =    -0.00000031   -0.00000006   -0.00000010
     atom   80 type  1   force =    -0.00000003   -0.00000002   -0.00000002
     atom   81 type  1   force =    -0.00000002   -0.00000001    0.00000001
     atom   82 type  2   force =    -0.00000000   -0.00000017   -0.00000009
     atom   83 type  1   force =    -0.00000007    0.00000000   -0.00000003
     atom   84 type  1   force =     0.00000001   -0.00000007   -0.00000003
     atom   85 type  2   force =     0.00000015    0.00000014    0.00000001
     atom   86 type  1   force =    -0.00000000    0.00000004   -0.00000002
     atom   87 type  1   force =     0.00000005    0.00000000   -0.00000000
     atom   88 type  2   force =    -0.00000030   -0.00000023   -0.00000046
     atom   89 type  1   force =    -0.00000012   -0.00000003   -0.00000004
     atom   90 type  1   force =     0.00000001   -0.00000005   -0.00000012
     atom   91 type  2   force =     0.00000007   -0.00000009   -0.00000007
     atom   92 type  1   force =    -0.00000001   -0.00000004   -0.00000005
     atom   93 type  1   force =     0.00000009    0.00000000    0.00000002
     atom   94 type  2   force =     0.00000011    0.00000001    0.00000030
     atom   95 type  1   force =    -0.00000002    0.00000005    0.00000008
     atom   96 type  1   force =     0.00000008   -0.00000005    0.00000004
     atom   97 type  2   force =     0.00000013   -0.00000002    0.00000003
     atom   98 type  1   force =     0.00000003   -0.00000001   -0.00000001
     atom   99 type  1   force =     0.00000001    0.00000002    0.00000005
     atom  100 type  2   force =    -0.00000026   -0.00000005    0.00000004
     atom  101 type  1   force =    -0.00000002   -0.00000002    0.00000003
     atom  102 type  1   force =    -0.00000004    0.00000001   -0.00000000
     atom  103 type  2   force =     0.00000001    0.00000024    0.00000012
     atom  104 type  1   force =    -0.00000001    0.00000002    0.00000004
     atom  105 type  1   force =     0.00000001    0.00000002   -0.00000000
     atom  106 type  2   force =     0.00000015   -0.00000019   -0.00000001
     atom  107 type  1   force =     0.00000002   -0.00000004   -0.00000003
     atom  108 type  1   force =     0.00000003   -0.00000002    0.00000003
     atom  109 type  2   force =    -0.00000003    0.00000015   -0.00000008
     atom  110 type  1   force =    -0.00000002    0.00000006   -0.00000001
     atom  111 type  1   force =    -0.00000002   -0.00000001   -0.00000004
     atom  112 type  2   force =    -0.00000008    0.00000030   -0.00000013
     atom  113 type  1   force =     0.00000001    0.00000003   -0.00000005
     atom  114 type  1   force =    -0.00000002    0.00000008    0.00000000
     atom  115 type  2   force =    -0.00000005   -0.00000010    0.00000005
     atom  116 type  1   force =    -0.00000002   -0.00000003    0.00000003
     atom  117 type  1   force =    -0.00000001    0.00000002   -0.00000001
     atom  118 type  2   force =     0.00000008    0.00000018    0.00000009
     atom  119 type  1   force =     0.00000001    0.00000004   -0.00000001
     atom  120 type  1   force =    -0.00000000    0.00000001    0.00000004
     atom  121 type  2   force =    -0.00000019   -0.00000007    0.00000003
     atom  122 type  1   force =    -0.00000003   -0.00000001   -0.00000000
     atom  123 type  1   force =    -0.00000001    0.00000000    0.00000001
     atom  124 type  2   force =     0.00000050    0.00000019    0.00000014
     atom  125 type  1   force =     0.00000005    0.00000007    0.00000007
     atom  126 type  1   force =     0.00000012   -0.00000000   -0.00000003
     atom  127 type  2   force =     0.00000007    0.00000019   -0.00000028
     atom  128 type  1   force =    -0.00000000   -0.00000001   -0.00000002
     atom  129 type  1   force =     0.00000002    0.00000005   -0.00000006
     atom  130 type  2   force =    -0.00000009   -0.00000017    0.00000013
     atom  131 type  1   force =     0.00000001   -0.00000007   -0.00000006
     atom  132 type  1   force =    -0.00000003   -0.00000004    0.00000007
     atom  133 type  2   force =     0.00000005    0.00000003   -0.00000001
     atom  134 type  1   force =    -0.00000000    0.00000001    0.00000000
     atom  135 type  1   force =     0.00000002    0.00000001    0.00000000
     atom  136 type  2   force =     0.00000012   -0.00000014    0.00000038
     atom  137 type  1   force =     0.00000001   -0.00000004    0.00000010
     atom  138 type  1   force =     0.00000005   -0.00000001    0.00000001
     atom  139 type  2   force =    -0.00000035    0.00000003    0.00000016
     atom  140 type  1   force =    -0.00000004    0.00000002   -0.00000005
     atom  141 type  1   force =    -0.00000009    0.00000000    0.00000006
     atom  142 type  2   force =    -0.00000010    0.00000010   -0.00000029
     atom  143 type  1   force =    -0.00000001   -0.00000003   -0.00000007
     atom  144 type  1   force =    -0.00000004    0.00000006   -0.00000003
     atom  145 type  2   force =     0.00000006   -0.00000017   -0.00000023
     atom  146 type  1   force =     0.00000002   -0.00000004   -0.00000002
     atom  147 type  1   force =     0.00000001    0.00000001   -0.00000005
     atom  148 type  2   force =     0.00000032    0.00000043    0.00000004
     atom  149 type  1   force =     0.00000009    0.00000001    0.00000001
     atom  150 type  1   force =     0.00000003    0.00000011    0.00000001
     atom  151 type  2   force =     0.00000013    0.00000032   -0.00000004
     atom  152 type  1   force =    -0.00000000    0.00000008   -0.00000007
     atom  153 type  1   force =     0.00000009    0.00000005    0.00000004
     atom  154 type  2   force =    -0.00000029   -0.00000012    0.00000005
     atom  155 type  1   force =    -0.00000008   -0.00000005   -0.00000004
     atom  156 type  1   force =    -0.00000004    0.00000000    0.00000008
     atom  157 type  2   force =     0.00000009   -0.00000023    0.00000007
     atom  158 type  1   force =     0.00000003   -0.00000006   -0.00000002
     atom  159 type  1   force =     0.00000002   -0.00000002    0.00000005
     atom  160 type  2   force =     0.00000015   -0.00000009   -0.00000000
     atom  161 type  1   force =     0.00000006    0.00000003    0.00000004
     atom  162 type  1   force =     0.00000004   -0.00000007   -0.00000004
     atom  163 type  2   force =    -0.00000018    0.00000009   -0.00000031
     atom  164 type  1   force =    -0.00000012   -0.00000002   -0.00000004
     atom  165 type  1   force =     0.00000003    0.00000005   -0.00000010
     atom  166 type  2   force =     0.00000033   -0.00000004    0.00000013
     atom  167 type  1   force =     0.00000006    0.00000002    0.00000006
     atom  168 type  1   force =     0.00000006   -0.00000004   -0.00000004
     atom  169 type  2   force =     0.00000015    0.00000026    0.00000013
     atom  170 type  1   force =     0.00000009   -0.00000002    0.00000005
     atom  171 type  1   force =    -0.00000000    0.00000013    0.00000002
     atom  172 type  2   force =     0.00000033   -0.00000022    0.00000015
     atom  173 type  1   force =     0.00000005    0.00000003   -0.00000004
     atom  174 type  1   force =     0.00000006   -0.00000006    0.00000004
     atom  175 type  2   force =     0.00000005   -0.00000000   -0.00000023
     atom  176 type  1   force =     0.00000001    0.00000007   -0.00000000
     atom  177 type  1   force =     0.00000002   -0.00000002   -0.00000008
     atom  178 type  2   force =    -0.00000002    0.00000012   -0.00000010
     atom  179 type  1   force =     0.00000004    0.00000002    0.00000000
     atom  180 type  1   force =    -0.00000004    0.00000004   -0.00000003
     atom  181 type  2   force =     0.00000040    0.00000001   -0.00000019
     atom  182 type  1   force =    -0.00000001   -0.00000002   -0.00000005
     atom  183 type  1   force =     0.00000011   -0.00000000   -0.00000003
     atom  184 type  2   force =    -0.00000006    0.00000008   -0.00000004
     atom  185 type  1   force =    -0.00000002    0.00000003   -0.00000003
     atom  186 type  1   force =    -0.00000000   -0.00000002   -0.00000000
     atom  187 type  2   force =    -0.00000006    0.00000007    0.00000016
     atom  188 type  1   force =     0.00000001    0.00000003    0.00000003
     atom  189 type  1   force =    -0.00000003   -0.00000001    0.00000003
     atom  190 type  2   force =     0.00000036    0.00000003    0.00000003
     atom  191 type  1   force =     0.00000002    0.00000007    0.00000002
     atom  192 type  1   force =     0.00000010   -0.00000002   -0.00000000
     atom  193 type  2   force =    -0.00000016    0.00000004   -0.00000010
     atom  194 type  1   force =     0.00000002   -0.00000000   -0.00000003
     atom  195 type  1   force =    -0.00000005    0.00000000   -0.00000001
     atom  196 type  2   force =    -0.00000014    0.00000001   -0.00000016
     atom  197 type  1   force =    -0.00000004    0.00000002   -0.00000005
     atom  198 type  1   force =     0.00000002    0.00000003    0.00000002
     atom  199 type  2   force =     0.00000003   -0.00000013   -0.00000003
     atom  200 type  1   force =    -0.00000001   -0.00000001   -0.00000002
     atom  201 type  1   force =     0.00000000   -0.00000001   -0.00000001
     atom  202 type  2   force =    -0.00000001    0.00000002   -0.00000009
     atom  203 type  1   force =     0.00000002    0.00000002   -0.00000005
     atom  204 type  1   force =    -0.00000003   -0.00000004   -0.00000001
     atom  205 type  2   force =     0.00000009   -0.00000006   -0.00000003
     atom  206 type  1   force =     0.00000001   -0.00000000   -0.00000001
     atom  207 type  1   force =     0.00000003    0.00000001   -0.00000001
     atom  208 type  2   force =     0.00000004   -0.00000027    0.00000036
     atom  209 type  1   force =    -0.00000003   -0.00000004    0.00000003
     atom  210 type  1   force =     0.00000005   -0.00000003    0.00000007
     atom  211 type  2   force =     0.00000005   -0.00000002   -0.00000015
     atom  212 type  1   force =     0.00000003   -0.00000005   -0.00000007
     atom  213 type  1   force =     0.00000002    0.00000006   -0.00000002
     atom  214 type  2   force =     0.00000015    0.00000004    0.00000007
     atom  215 type  1   force =     0.00000008   -0.00000000   -0.00000005
     atom  216 type  1   force =     0.00000003    0.00000002    0.00000010
     atom  217 type  2   force =    -0.00000023   -0.00000018    0.00000018
     atom  218 type  1   force =    -0.00000006   -0.00000001   -0.00000000
     atom  219 type  1   force =    -0.00000000   -0.00000004    0.00000007
     atom  220 type  2   force =     0.00000002   -0.00000003    0.00000003
     atom  221 type  1   force =    -0.00000001   -0.00000000    0.00000001
     atom  222 type  1   force =    -0.00000001   -0.00000002    0.00000002
     atom  223 type  2   force =    -0.00000001   -0.00000009    0.00000004
     atom  224 type  1   force =     0.00000001   -0.00000001   -0.00000001
     atom  225 type  1   force =     0.00000002   -0.00000001    0.00000000
     atom  226 type  2   force =    -0.00000000   -0.00000010    0.00000025
     atom  227 type  1   force =     0.00000002    0.00000000    0.00000006
     atom  228 type  1   force =    -0.00000002   -0.00000003    0.00000004

     Total force =     0.647501     Total SCF correction =     0.000003

     Writing output data file ./008.save/
 
     init_run     :      6.57s CPU      4.25s WALL (       1 calls)
     electrons    :    195.53s CPU    104.49s WALL (       1 calls)
     forces       :      3.61s CPU      2.05s WALL (       1 calls)

     Called by init_run:
     wfcinit      :      3.32s CPU      1.77s WALL (       1 calls)
     wfcinit:atom :      0.03s CPU      0.02s WALL (       1 calls)
     wfcinit:wfcr :      3.13s CPU      1.66s WALL (       1 calls)
     potinit      :      0.77s CPU      0.43s WALL (       1 calls)
     hinit0       :      0.62s CPU      0.34s WALL (       1 calls)

     Called by electrons:
     c_bands      :    145.83s CPU     75.68s WALL (      21 calls)
     sum_band     :     29.56s CPU     16.79s WALL (      21 calls)
     v_of_rho     :      8.08s CPU      4.34s WALL (      22 calls)
     v_h          :      0.98s CPU      0.52s WALL (      22 calls)
     v_xc         :      7.41s CPU      3.98s WALL (      23 calls)
     newd         :      7.22s CPU      5.10s WALL (      22 calls)
     PAW_pot      :      1.93s CPU      0.99s WALL (      22 calls)
     mix_rho      :      2.18s CPU      1.15s WALL (      21 calls)

     Called by c_bands:
     init_us_2    :      1.23s CPU      0.64s WALL (      43 calls)
     regterg      :    143.37s CPU     74.41s WALL (      21 calls)

     Called by sum_band:
     sum_band:wei :      0.00s CPU      0.00s WALL (      21 calls)
     sum_band:loo :     22.79s CPU     11.85s WALL (      21 calls)
     sum_band:buf :      0.00s CPU      0.00s WALL (      21 calls)
     sum_band:ini :      0.61s CPU      0.31s WALL (      21 calls)
     sum_band:cal :      2.26s CPU      1.16s WALL (      21 calls)
     sum_band:bec :      0.05s CPU      0.03s WALL (      21 calls)
     addusdens    :      5.56s CPU      4.27s WALL (      21 calls)
     addusd:skk   :      2.52s CPU      2.40s WALL (      42 calls)
     addusd:dgemm :      1.91s CPU      1.25s WALL (      42 calls)
     addusd:qvan2 :      0.86s CPU      0.44s WALL (      42 calls)

     Called by *egterg:
     rdiaghg      :      8.32s CPU      4.29s WALL (      80 calls)
     regterg:over :      6.00s CPU      3.10s WALL (      59 calls)
     regterg:upda :      6.02s CPU      3.12s WALL (      59 calls)
     regterg:last :     11.48s CPU      5.81s WALL (      48 calls)
     rdiaghg:chol :      0.32s CPU      0.17s WALL (      80 calls)
     rdiaghg:inve :      0.35s CPU      0.18s WALL (      80 calls)
     rdiaghg:para :      0.46s CPU      0.26s WALL (     160 calls)
     h_psi        :    104.22s CPU     54.24s WALL (      81 calls)
     s_psi        :      6.71s CPU      3.40s WALL (      81 calls)
     g_psi        :      0.26s CPU      0.13s WALL (      59 calls)

     Called by h_psi:
     h_psi:calbec :      6.61s CPU      3.39s WALL (      81 calls)
     vloc_psi     :     90.12s CPU     47.05s WALL (      81 calls)
     vloc_psi:tg_ :      0.69s CPU      0.36s WALL (      81 calls)
     add_vuspsi   :      6.96s CPU      3.54s WALL (      81 calls)

     General routines
     calbec       :      9.31s CPU      4.77s WALL (     106 calls)
     fft          :      8.15s CPU      4.39s WALL (     249 calls)
     ffts         :      0.51s CPU      0.29s WALL (      43 calls)
     fftw         :     87.57s CPU     45.74s WALL (   10646 calls)
     interpolate  :      1.09s CPU      0.58s WALL (      22 calls)
 
     Parallel routines
     fft_scatt_xy :     17.99s CPU      9.32s WALL (   10938 calls)
     fft_scatt_yz :     33.69s CPU     17.87s WALL (   10938 calls)
     fft_scatt_tg :      4.00s CPU      2.47s WALL (   10646 calls)

     PAW routines
     PAW_pot      :      1.93s CPU      0.99s WALL (      22 calls)
 
     PWSCF        :   3m27.41s CPU   1m53.23s WALL

 
   This run was terminated on:   8:49:54  26Jun2021            

=------------------------------------------------------------------------------=
   JOB DONE.
=------------------------------------------------------------------------------=
