
     Program PWSCF v.6.6 starts on 25Jun2021 at 23:34:36 

     This program is part of the open-source Quantum ESPRESSO suite
     for quantum simulation of materials; please cite
         "P. Giannozzi et al., J. Phys.:Condens. Matter 21 395502 (2009);
         "P. Giannozzi et al., J. Phys.:Condens. Matter 29 465901 (2017);
          URL http://www.quantum-espresso.org", 
     in publications or presentations arising from this work. More details at
     http://www.quantum-espresso.org/quote

     Parallel version (MPI & OpenMP), running on      96 processor cores
     Number of MPI processes:                24
     Threads/MPI process:                     4

     MPI processes distributed on     2 nodes
     R & G space division:  proc/nbgrp/npool/nimage =      24
     wavefunctions fft division:  Y-proc x Z-proc =       2     12
     wavefunctions fft division:  task group distribution
                                  #TG    x Z-proc =       2     12
     Fft bands division:     nmany     =       1
     Reading input from _007.in

     Current dimensions of program PWSCF are:
     Max number of different atomic species (ntypx) = 10
     Max number of k-points (npk) =  40000
     Max angular momentum in pseudopotentials (lmaxx) =  3
     file O.pbe-n-kjpaw_psl.0.1.UPF: wavefunction(s)  2P renormalized

     gamma-point specific algorithms are used

     Subspace diagonalization in iterative solution of the eigenvalue problem:
     a serial algorithm will be used

 
     Parallelization info
     --------------------
     sticks:   dense  smooth     PW     G-vecs:    dense   smooth      PW
     Min        1409     704    175               195222    69016    8616
     Max        1412     706    178               195302    69046    8628
     Sum       33849   16929   4229              4686239  1656739  206917
 


     bravais-lattice index     =            1
     lattice parameter (alat)  =      29.7726  a.u.
     unit-cell volume          =   26390.7555 (a.u.)^3
     number of atoms/cell      =          141
     number of atomic types    =            2
     number of electrons       =       376.00
     number of Kohn-Sham states=          188
     kinetic-energy cutoff     =      60.0000  Ry
     charge density cutoff     =     480.0000  Ry
     convergence threshold     =      1.0E-10
     mixing beta               =       0.7000
     number of iterations used =            8  plain     mixing
     Exchange-correlation= SLA PW PBX PBC
                           (   1   4   3   4   0   0   0)

     celldm(1)=  29.772635  celldm(2)=   0.000000  celldm(3)=   0.000000
     celldm(4)=   0.000000  celldm(5)=   0.000000  celldm(6)=   0.000000

     crystal axes: (cart. coord. in units of alat)
               a(1) = (   1.000000   0.000000   0.000000 )  
               a(2) = (   0.000000   1.000000   0.000000 )  
               a(3) = (   0.000000   0.000000   1.000000 )  

     reciprocal axes: (cart. coord. in units 2 pi/alat)
               b(1) = (  1.000000  0.000000  0.000000 )  
               b(2) = (  0.000000  1.000000  0.000000 )  
               b(3) = (  0.000000  0.000000  1.000000 )  


     PseudoPot. # 1 for H  read from file:
     ./H.pbe-rrkjus_psl.1.0.0.UPF
     MD5 check sum: f52b6d4d1c606e5624b1dc7b2218f220
     Pseudo is Ultrasoft, Zval =  1.0
     Generated using "atomic" code by A. Dal Corso v.5.1
     Using radial grid of  929 points,  2 beta functions with: 
                l(1) =   0
                l(2) =   0
     Q(r) pseudized with 0 coefficients 


     PseudoPot. # 2 for O  read from file:
     ./O.pbe-n-kjpaw_psl.0.1.UPF
     MD5 check sum: 0234752ac141de4415c5fc33072bef88
     Pseudo is Projector augmented-wave + core cor, Zval =  6.0
     Generated using "atomic" code by A. Dal Corso v.5.0.99 svn rev. 10869
     Shape of augmentation charge: BESSEL
     Using radial grid of 1095 points,  4 beta functions with: 
                l(1) =   0
                l(2) =   0
                l(3) =   1
                l(4) =   1
     Q(r) pseudized with 0 coefficients 


     atomic species   valence    mass     pseudopotential
        H              1.00     1.00000     H ( 1.00)
        O              6.00    16.00000     O ( 1.00)

     No symmetry found


                                    s                        frac. trans.

      isym =  1     identity                                     

 cryst.   s( 1) = (     1          0          0      )
                  (     0          1          0      )
                  (     0          0          1      )

 cart.    s( 1) = (  1.0000000  0.0000000  0.0000000 )
                  (  0.0000000  1.0000000  0.0000000 )
                  (  0.0000000  0.0000000  1.0000000 )


     point group C_1 (1)    
     there are  1 classes
     the character table:

       E    
A      1.00

     the symmetry operations in each class and the name of the first element:

     E        1
          identity                                               

   Cartesian axes

     site n.     atom                  positions (alat units)
         1           O   tau(   1) = (   0.0563542   0.2157321   0.3443262  )
         2           H   tau(   2) = (   0.0982456   0.2375665   0.3866620  )
         3           H   tau(   3) = (   0.0867572   0.1823459   0.2997690  )
         4           O   tau(   4) = (   0.2164303   0.1985313  -0.2924557  )
         5           H   tau(   5) = (   0.2739994   0.1997372  -0.2656515  )
         6           H   tau(   6) = (   0.1819016   0.1520698  -0.2663751  )
         7           O   tau(   7) = (  -0.1509514   0.2020222   0.0344564  )
         8           H   tau(   8) = (  -0.1347851   0.2033551  -0.0269337  )
         9           H   tau(   9) = (  -0.1953881   0.1575919   0.0435963  )
        10           O   tau(  10) = (   0.0537518   0.3183662  -0.0788600  )
        11           H   tau(  11) = (   0.0781250   0.2809178  -0.0338077  )
        12           H   tau(  12) = (   0.1000863   0.3530219  -0.1049470  )
        13           O   tau(  13) = (   0.0249356   0.0212542  -0.2781111  )
        14           H   tau(  14) = (   0.0786328   0.0298864  -0.2454421  )
        15           H   tau(  15) = (  -0.0230682   0.0497531  -0.2478794  )
        16           O   tau(  16) = (  -0.0278096   0.0635265   0.0608607  )
        17           H   tau(  17) = (  -0.0585808   0.0090549   0.0501339  )
        18           H   tau(  18) = (  -0.0698534   0.1096071   0.0724126  )
        19           O   tau(  19) = (  -0.0919162  -0.0839061  -0.1596344  )
        20           H   tau(  20) = (  -0.0298343  -0.0753564  -0.1495678  )
        21           H   tau(  21) = (  -0.1161752  -0.0322209  -0.1873589  )
        22           O   tau(  22) = (   0.0314097   0.0209368   0.2197944  )
        23           H   tau(  23) = (   0.0257607   0.0503878   0.1638756  )
        24           H   tau(  24) = (  -0.0093393  -0.0276446   0.2223332  )
        25           O   tau(  25) = (  -0.1384856  -0.0836077   0.0104640  )
        26           H   tau(  26) = (  -0.1954516  -0.0606500   0.0264589  )
        27           H   tau(  27) = (  -0.1306341  -0.0788283  -0.0523669  )
        28           O   tau(  28) = (  -0.2461847  -0.0422748   0.2151609  )
        29           H   tau(  29) = (  -0.2678223  -0.0284951   0.2732377  )
        30           H   tau(  30) = (  -0.1849724  -0.0586696   0.2187788  )
        31           O   tau(  31) = (  -0.2228778   0.1146849  -0.3190441  )
        32           H   tau(  32) = (  -0.2847947   0.1136693  -0.3329445  )
        33           H   tau(  33) = (  -0.1901644   0.1347420  -0.3695868  )
        34           O   tau(  34) = (  -0.2155785  -0.2662672   0.1577823  )
        35           H   tau(  35) = (  -0.2599073  -0.2274795   0.1341073  )
        36           H   tau(  36) = (  -0.1593424  -0.2524557   0.1317588  )
        37           O   tau(  37) = (   0.2359162  -0.2554262   0.0214446  )
        38           H   tau(  38) = (   0.2795214  -0.2578635   0.0674618  )
        39           H   tau(  39) = (   0.1840597  -0.2258229   0.0429616  )
        40           O   tau(  40) = (  -0.1135474   0.2418191   0.2908194  )
        41           H   tau(  41) = (  -0.0509832   0.2460083   0.3005941  )
        42           H   tau(  42) = (  -0.1414878   0.2177632   0.3424856  )
        43           O   tau(  43) = (  -0.1081650   0.0908194  -0.1919733  )
        44           H   tau(  44) = (  -0.0992218   0.1463573  -0.1626239  )
        45           H   tau(  45) = (  -0.1480317   0.0988169  -0.2407071  )
        46           O   tau(  46) = (   0.2863764   0.1950403   0.1051006  )
        47           H   tau(  47) = (   0.2478489   0.2421999   0.0872650  )
        48           H   tau(  48) = (   0.3392485   0.2192866   0.1304259  )
        49           O   tau(  49) = (   0.2840279  -0.2791774  -0.1418242  )
        50           H   tau(  50) = (   0.2345198  -0.3026557  -0.1737886  )
        51           H   tau(  51) = (   0.2693659  -0.2747915  -0.0802374  )
        52           O   tau(  52) = (   0.2314097  -0.0892567  -0.0183205  )
        53           H   tau(  53) = (   0.1753640  -0.0748486  -0.0443948  )
        54           H   tau(  54) = (   0.2460083  -0.1495931  -0.0315481  )
        55           O   tau(  55) = (  -0.0689013  -0.2152993   0.0920254  )
        56           H   tau(  56) = (  -0.0894281  -0.1667750   0.0566715  )
        57           H   tau(  57) = (  -0.0386062  -0.2570892   0.0550847  )
        58           O   tau(  58) = (   0.1674935   0.0639708  -0.1774383  )
        59           H   tau(  59) = (   0.2275379   0.0525459  -0.1944424  )
        60           H   tau(  60) = (   0.1660336   0.0845357  -0.1174065  )
        61           O   tau(  61) = (  -0.2554706   0.0733646   0.0904386  )
        62           H   tau(  62) = (  -0.2604468   0.0373126   0.1424221  )
        63           H   tau(  63) = (  -0.3134586   0.0890422   0.0699372  )
        64           O   tau(  64) = (  -0.3157118  -0.1691615  -0.0829794  )
        65           H   tau(  65) = (  -0.3241726  -0.1559594  -0.0214751  )
        66           H   tau(  66) = (  -0.2960482  -0.1169813  -0.1132999  )
        67           O   tau(  67) = (  -0.0880571  -0.1022939   0.2312828  )
        68           H   tau(  68) = (  -0.0826620  -0.1505008   0.1903434  )
        69           H   tau(  69) = (  -0.0759975  -0.1229921   0.2900578  )
        70           O   tau(  70) = (   0.2745706   0.0127490   0.1065605  )
        71           H   tau(  71) = (   0.2644786   0.0746976   0.0970397  )
        72           H   tau(  72) = (   0.2509591  -0.0202628   0.0578140  )
        73           O   tau(  73) = (   0.1381695   0.2682234   0.0682234  )
        74           H   tau(  74) = (   0.0955163   0.2431520   0.1079568  )
        75           H   tau(  75) = (   0.1242056   0.3292199   0.0578775  )
        76           O   tau(  76) = (  -0.2192409  -0.3738458   0.0187153  )
        77           H   tau(  77) = (  -0.1741631  -0.3394123  -0.0097836  )
        78           H   tau(  78) = (  -0.2075367  -0.3766258   0.0810447  )
        79           O   tau(  79) = (  -0.3258293  -0.1354199   0.0967223  )
        80           H   tau(  80) = (  -0.3859626  -0.1530016   0.1068778  )
        81           H   tau(  81) = (  -0.3094154  -0.0908245   0.1388042  )
        82           O   tau(  82) = (   0.3428664   0.0489914  -0.2045217  )
        83           H   tau(  83) = (   0.3532123   0.0052656  -0.2493520  )
        84           H   tau(  84) = (   0.3393754   0.0206830  -0.1478032  )
        85           O   tau(  85) = (  -0.0979968   0.2486741  -0.1287744  )
        86           H   tau(  86) = (  -0.1177429   0.2792675  -0.1807515  )
        87           H   tau(  87) = (  -0.0414878   0.2714605  -0.1109959  )
        88           O   tau(  88) = (  -0.0497709   0.3458496  -0.2908689  )
        89           H   tau(  89) = (   0.0090676   0.3222380  -0.2933380  )
        90           H   tau(  90) = (  -0.0469844   0.4090676  -0.2856769  )
        91           O   tau(  91) = (   0.1210955  -0.3481206  -0.0968543  )
        92           H   tau(  92) = (   0.1443897  -0.3998629  -0.1252834  )
        93           H   tau(  93) = (   0.1386138  -0.3477969  -0.0358515  )
        94           O   tau(  94) = (  -0.0939727   0.0574332   0.3759987  )
        95           H   tau(  95) = (  -0.0542076   0.0852974   0.4168112  )
        96           H   tau(  96) = (  -0.0606119   0.0251895   0.3326474  )
        97           O   tau(  97) = (   0.2032282  -0.1424462  -0.2444519  )
        98           H   tau(  98) = (   0.2305846  -0.1078413  -0.2901073  )
        99           H   tau(  99) = (   0.2468969  -0.1792663  -0.2167972  )
       100           O   tau( 100) = (  -0.2933570   0.0103116  -0.1287045  )
       101           H   tau( 101) = (  -0.2355912   0.0365509  -0.1272129  )
       102           H   tau( 102) = (  -0.3344487   0.0510225  -0.1547851  )
       103           O   tau( 103) = (  -0.0473780  -0.3322209  -0.0324430  )
       104           H   tau( 104) = (  -0.0848708  -0.3556801  -0.0779651  )
       105           H   tau( 105) = (   0.0128759  -0.3324303  -0.0524557  )
       106           O   tau( 106) = (  -0.4143599   0.1045928   0.0202387  )
       107           H   tau( 107) = (  -0.4421987   0.1485154  -0.0161308  )
       108           H   tau( 108) = (  -0.4365243   0.0471507   0.0046880  )
       109           O   tau( 109) = (   0.1337899   0.1089724  -0.0195900  )
       110           H   tau( 110) = (   0.1537836   0.1609559   0.0108448  )
       111           H   tau( 111) = (   0.0827585   0.0854243   0.0099562  )
       112           O   tau( 112) = (  -0.0713005  -0.2446233  -0.2330079  )
       113           H   tau( 113) = (  -0.0771082  -0.1835950  -0.2165624  )
       114           H   tau( 114) = (  -0.0098470  -0.2605484  -0.2338965  )
       115           O   tau( 115) = (   0.2089407  -0.0505008   0.2627014  )
       116           H   tau( 116) = (   0.2494357  -0.0412529   0.2146531  )
       117           H   tau( 117) = (   0.1493405  -0.0464386   0.2411844  )
       118           O   tau( 118) = (  -0.0488442  -0.1013672  -0.3818813  )
       119           H   tau( 119) = (  -0.0814878  -0.0678921  -0.4248010  )
       120           H   tau( 120) = (  -0.0148613  -0.0618750  -0.3456579  )
       121           O   tau( 121) = (  -0.1993297   0.3843136   0.0641612  )
       122           H   tau( 122) = (  -0.1554833   0.4169381   0.0964050  )
       123           H   tau( 123) = (  -0.1754706   0.3280140   0.0470238  )
       124           O   tau( 124) = (   0.1828537   0.1362653   0.2705084  )
       125           H   tau( 125) = (   0.2112891   0.1511812   0.2157956  )
       126           H   tau( 126) = (   0.1539740   0.0800292   0.2647325  )
       127           O   tau( 127) = (   0.1019270  -0.2459118   0.2724126  )
       128           H   tau( 128) = (   0.1418508  -0.2949502   0.2668905  )
       129           H   tau( 129) = (   0.0443580  -0.2672129   0.2884710  )
       130           O   tau( 130) = (   0.3864716  -0.0312434  -0.0557055  )
       131           H   tau( 131) = (   0.3312510  -0.0573558  -0.0385109  )
       132           H   tau( 132) = (   0.4308385  -0.0453278  -0.0125763  )
       133           O   tau( 133) = (   0.1005306  -0.1515354   0.1165890  )
       134           H   tau( 134) = (   0.0385820  -0.1546646   0.1031330  )
       135           H   tau( 135) = (   0.1103688  -0.1714211   0.1760622  )
       136           O   tau( 136) = (   0.0896769  -0.0963529  -0.1240076  )
       137           H   tau( 137) = (   0.1048467  -0.0381047  -0.1441536  )
       138           H   tau( 138) = (   0.1251577  -0.1392091  -0.1545820  )
       139           O   tau( 139) = (  -0.0169749   0.2182076   0.1290930  )
       140           H   tau( 140) = (  -0.0388093   0.2075443   0.1877410  )
       141           H   tau( 141) = (  -0.0657341   0.2296960   0.0901212  )

   Crystallographic axes

     site n.     atom                  positions (cryst. coord.)
         1           O   tau(   1) = (  0.0563542  0.2157321  0.3443262  )
         2           H   tau(   2) = (  0.0982456  0.2375665  0.3866620  )
         3           H   tau(   3) = (  0.0867572  0.1823459  0.2997690  )
         4           O   tau(   4) = (  0.2164303  0.1985313 -0.2924557  )
         5           H   tau(   5) = (  0.2739994  0.1997372 -0.2656515  )
         6           H   tau(   6) = (  0.1819016  0.1520698 -0.2663751  )
         7           O   tau(   7) = ( -0.1509514  0.2020222  0.0344564  )
         8           H   tau(   8) = ( -0.1347851  0.2033551 -0.0269337  )
         9           H   tau(   9) = ( -0.1953881  0.1575919  0.0435963  )
        10           O   tau(  10) = (  0.0537518  0.3183662 -0.0788600  )
        11           H   tau(  11) = (  0.0781250  0.2809178 -0.0338077  )
        12           H   tau(  12) = (  0.1000863  0.3530219 -0.1049470  )
        13           O   tau(  13) = (  0.0249356  0.0212542 -0.2781111  )
        14           H   tau(  14) = (  0.0786328  0.0298864 -0.2454421  )
        15           H   tau(  15) = ( -0.0230682  0.0497531 -0.2478794  )
        16           O   tau(  16) = ( -0.0278096  0.0635265  0.0608607  )
        17           H   tau(  17) = ( -0.0585808  0.0090549  0.0501339  )
        18           H   tau(  18) = ( -0.0698534  0.1096071  0.0724126  )
        19           O   tau(  19) = ( -0.0919162 -0.0839061 -0.1596344  )
        20           H   tau(  20) = ( -0.0298343 -0.0753564 -0.1495678  )
        21           H   tau(  21) = ( -0.1161752 -0.0322209 -0.1873589  )
        22           O   tau(  22) = (  0.0314097  0.0209368  0.2197944  )
        23           H   tau(  23) = (  0.0257607  0.0503878  0.1638756  )
        24           H   tau(  24) = ( -0.0093393 -0.0276446  0.2223332  )
        25           O   tau(  25) = ( -0.1384856 -0.0836077  0.0104640  )
        26           H   tau(  26) = ( -0.1954516 -0.0606500  0.0264589  )
        27           H   tau(  27) = ( -0.1306341 -0.0788283 -0.0523669  )
        28           O   tau(  28) = ( -0.2461847 -0.0422748  0.2151609  )
        29           H   tau(  29) = ( -0.2678223 -0.0284951  0.2732377  )
        30           H   tau(  30) = ( -0.1849724 -0.0586696  0.2187788  )
        31           O   tau(  31) = ( -0.2228778  0.1146849 -0.3190441  )
        32           H   tau(  32) = ( -0.2847947  0.1136693 -0.3329445  )
        33           H   tau(  33) = ( -0.1901644  0.1347420 -0.3695868  )
        34           O   tau(  34) = ( -0.2155785 -0.2662672  0.1577823  )
        35           H   tau(  35) = ( -0.2599073 -0.2274795  0.1341073  )
        36           H   tau(  36) = ( -0.1593424 -0.2524557  0.1317588  )
        37           O   tau(  37) = (  0.2359162 -0.2554262  0.0214446  )
        38           H   tau(  38) = (  0.2795214 -0.2578635  0.0674618  )
        39           H   tau(  39) = (  0.1840597 -0.2258229  0.0429616  )
        40           O   tau(  40) = ( -0.1135474  0.2418191  0.2908194  )
        41           H   tau(  41) = ( -0.0509832  0.2460083  0.3005941  )
        42           H   tau(  42) = ( -0.1414878  0.2177632  0.3424856  )
        43           O   tau(  43) = ( -0.1081650  0.0908194 -0.1919733  )
        44           H   tau(  44) = ( -0.0992218  0.1463573 -0.1626239  )
        45           H   tau(  45) = ( -0.1480317  0.0988169 -0.2407071  )
        46           O   tau(  46) = (  0.2863764  0.1950403  0.1051006  )
        47           H   tau(  47) = (  0.2478489  0.2421999  0.0872650  )
        48           H   tau(  48) = (  0.3392485  0.2192866  0.1304259  )
        49           O   tau(  49) = (  0.2840279 -0.2791774 -0.1418242  )
        50           H   tau(  50) = (  0.2345198 -0.3026557 -0.1737886  )
        51           H   tau(  51) = (  0.2693659 -0.2747915 -0.0802374  )
        52           O   tau(  52) = (  0.2314097 -0.0892567 -0.0183205  )
        53           H   tau(  53) = (  0.1753640 -0.0748486 -0.0443948  )
        54           H   tau(  54) = (  0.2460083 -0.1495931 -0.0315481  )
        55           O   tau(  55) = ( -0.0689013 -0.2152993  0.0920254  )
        56           H   tau(  56) = ( -0.0894281 -0.1667750  0.0566715  )
        57           H   tau(  57) = ( -0.0386062 -0.2570892  0.0550847  )
        58           O   tau(  58) = (  0.1674935  0.0639708 -0.1774383  )
        59           H   tau(  59) = (  0.2275379  0.0525459 -0.1944424  )
        60           H   tau(  60) = (  0.1660336  0.0845357 -0.1174065  )
        61           O   tau(  61) = ( -0.2554706  0.0733646  0.0904386  )
        62           H   tau(  62) = ( -0.2604468  0.0373126  0.1424221  )
        63           H   tau(  63) = ( -0.3134586  0.0890422  0.0699372  )
        64           O   tau(  64) = ( -0.3157118 -0.1691615 -0.0829794  )
        65           H   tau(  65) = ( -0.3241726 -0.1559594 -0.0214751  )
        66           H   tau(  66) = ( -0.2960482 -0.1169813 -0.1132999  )
        67           O   tau(  67) = ( -0.0880571 -0.1022939  0.2312828  )
        68           H   tau(  68) = ( -0.0826620 -0.1505008  0.1903434  )
        69           H   tau(  69) = ( -0.0759975 -0.1229921  0.2900578  )
        70           O   tau(  70) = (  0.2745706  0.0127490  0.1065605  )
        71           H   tau(  71) = (  0.2644786  0.0746976  0.0970397  )
        72           H   tau(  72) = (  0.2509591 -0.0202628  0.0578140  )
        73           O   tau(  73) = (  0.1381695  0.2682234  0.0682234  )
        74           H   tau(  74) = (  0.0955163  0.2431520  0.1079568  )
        75           H   tau(  75) = (  0.1242056  0.3292199  0.0578775  )
        76           O   tau(  76) = ( -0.2192409 -0.3738458  0.0187153  )
        77           H   tau(  77) = ( -0.1741631 -0.3394123 -0.0097836  )
        78           H   tau(  78) = ( -0.2075367 -0.3766258  0.0810447  )
        79           O   tau(  79) = ( -0.3258293 -0.1354199  0.0967223  )
        80           H   tau(  80) = ( -0.3859626 -0.1530016  0.1068778  )
        81           H   tau(  81) = ( -0.3094154 -0.0908245  0.1388042  )
        82           O   tau(  82) = (  0.3428664  0.0489914 -0.2045217  )
        83           H   tau(  83) = (  0.3532123  0.0052656 -0.2493520  )
        84           H   tau(  84) = (  0.3393754  0.0206830 -0.1478032  )
        85           O   tau(  85) = ( -0.0979968  0.2486741 -0.1287744  )
        86           H   tau(  86) = ( -0.1177429  0.2792675 -0.1807515  )
        87           H   tau(  87) = ( -0.0414878  0.2714605 -0.1109959  )
        88           O   tau(  88) = ( -0.0497709  0.3458496 -0.2908689  )
        89           H   tau(  89) = (  0.0090676  0.3222380 -0.2933380  )
        90           H   tau(  90) = ( -0.0469844  0.4090676 -0.2856769  )
        91           O   tau(  91) = (  0.1210955 -0.3481206 -0.0968543  )
        92           H   tau(  92) = (  0.1443897 -0.3998629 -0.1252834  )
        93           H   tau(  93) = (  0.1386138 -0.3477969 -0.0358515  )
        94           O   tau(  94) = ( -0.0939727  0.0574332  0.3759987  )
        95           H   tau(  95) = ( -0.0542076  0.0852974  0.4168112  )
        96           H   tau(  96) = ( -0.0606119  0.0251895  0.3326474  )
        97           O   tau(  97) = (  0.2032282 -0.1424462 -0.2444519  )
        98           H   tau(  98) = (  0.2305846 -0.1078413 -0.2901073  )
        99           H   tau(  99) = (  0.2468969 -0.1792663 -0.2167972  )
       100           O   tau( 100) = ( -0.2933570  0.0103116 -0.1287045  )
       101           H   tau( 101) = ( -0.2355912  0.0365509 -0.1272129  )
       102           H   tau( 102) = ( -0.3344487  0.0510225 -0.1547851  )
       103           O   tau( 103) = ( -0.0473780 -0.3322209 -0.0324430  )
       104           H   tau( 104) = ( -0.0848708 -0.3556801 -0.0779651  )
       105           H   tau( 105) = (  0.0128759 -0.3324303 -0.0524557  )
       106           O   tau( 106) = ( -0.4143599  0.1045928  0.0202387  )
       107           H   tau( 107) = ( -0.4421987  0.1485154 -0.0161308  )
       108           H   tau( 108) = ( -0.4365243  0.0471507  0.0046880  )
       109           O   tau( 109) = (  0.1337899  0.1089724 -0.0195900  )
       110           H   tau( 110) = (  0.1537836  0.1609559  0.0108448  )
       111           H   tau( 111) = (  0.0827585  0.0854243  0.0099562  )
       112           O   tau( 112) = ( -0.0713005 -0.2446233 -0.2330079  )
       113           H   tau( 113) = ( -0.0771082 -0.1835950 -0.2165624  )
       114           H   tau( 114) = ( -0.0098470 -0.2605484 -0.2338965  )
       115           O   tau( 115) = (  0.2089407 -0.0505008  0.2627014  )
       116           H   tau( 116) = (  0.2494357 -0.0412529  0.2146531  )
       117           H   tau( 117) = (  0.1493405 -0.0464386  0.2411844  )
       118           O   tau( 118) = ( -0.0488442 -0.1013672 -0.3818813  )
       119           H   tau( 119) = ( -0.0814878 -0.0678921 -0.4248010  )
       120           H   tau( 120) = ( -0.0148613 -0.0618750 -0.3456579  )
       121           O   tau( 121) = ( -0.1993297  0.3843136  0.0641612  )
       122           H   tau( 122) = ( -0.1554833  0.4169381  0.0964050  )
       123           H   tau( 123) = ( -0.1754706  0.3280140  0.0470238  )
       124           O   tau( 124) = (  0.1828537  0.1362653  0.2705084  )
       125           H   tau( 125) = (  0.2112891  0.1511812  0.2157956  )
       126           H   tau( 126) = (  0.1539740  0.0800292  0.2647325  )
       127           O   tau( 127) = (  0.1019270 -0.2459118  0.2724126  )
       128           H   tau( 128) = (  0.1418508 -0.2949502  0.2668905  )
       129           H   tau( 129) = (  0.0443580 -0.2672129  0.2884710  )
       130           O   tau( 130) = (  0.3864716 -0.0312434 -0.0557055  )
       131           H   tau( 131) = (  0.3312510 -0.0573558 -0.0385109  )
       132           H   tau( 132) = (  0.4308385 -0.0453278 -0.0125763  )
       133           O   tau( 133) = (  0.1005306 -0.1515354  0.1165890  )
       134           H   tau( 134) = (  0.0385820 -0.1546646  0.1031330  )
       135           H   tau( 135) = (  0.1103688 -0.1714211  0.1760622  )
       136           O   tau( 136) = (  0.0896769 -0.0963529 -0.1240076  )
       137           H   tau( 137) = (  0.1048467 -0.0381047 -0.1441536  )
       138           H   tau( 138) = (  0.1251577 -0.1392091 -0.1545820  )
       139           O   tau( 139) = ( -0.0169749  0.2182076  0.1290930  )
       140           H   tau( 140) = ( -0.0388093  0.2075443  0.1877410  )
       141           H   tau( 141) = ( -0.0657341  0.2296960  0.0901212  )

     number of k points=     1
                       cart. coord. in units 2pi/alat
        k(    1) = (   0.0000000   0.0000000   0.0000000), wk =   2.0000000

                       cryst. coord.
        k(    1) = (   0.0000000   0.0000000   0.0000000), wk =   2.0000000

     Dense  grid:  2343120 G-vectors     FFT dimensions: ( 216, 216, 216)

     Smooth grid:   828370 G-vectors     FFT dimensions: ( 150, 150, 150)

     Dynamical RAM for                 wfc:      12.38 MB

     Dynamical RAM for     wfc (w. buffer):      12.38 MB

     Dynamical RAM for           str. fact:       2.98 MB

     Dynamical RAM for           local pot:       0.00 MB

     Dynamical RAM for          nlocal pot:      37.13 MB

     Dynamical RAM for                qrad:       1.00 MB

     Dynamical RAM for          rho,v,vnew:      14.08 MB

     Dynamical RAM for               rhoin:       4.69 MB

     Dynamical RAM for            rho*nmix:      23.83 MB

     Dynamical RAM for           G-vectors:       5.85 MB

     Dynamical RAM for          h,s,v(r/c):       3.24 MB

     Dynamical RAM for          <psi|beta>:       0.81 MB

     Dynamical RAM for                 psi:      24.76 MB

     Dynamical RAM for                hpsi:      24.76 MB

     Dynamical RAM for                spsi:      24.76 MB

     Dynamical RAM for      wfcinit/wfcrot:      38.96 MB

     Dynamical RAM for           addusdens:     204.06 MB

     Dynamical RAM for          addusforce:     481.92 MB

     Estimated static dynamical RAM per process >     122.44 MB

     Estimated max dynamical RAM per process >     604.35 MB

     Estimated total dynamical RAM >      14.16 GB

     Initial potential from superposition of free atoms

     starting charge  375.99904, renormalised to  376.00000

     negative rho (up, down):  7.585E-04 0.000E+00
     Starting wfcs are  282 randomized atomic wfcs
     Checking if some PAW data can be deallocated... 

     total cpu time spent up to now is        2.9 secs

     Self-consistent Calculation

     iteration #  1     ecut=    60.00 Ry     beta= 0.70
     Davidson diagonalization with overlap
     ethr =  1.00E-02,  avg # of iterations =  2.0

     negative rho (up, down):  2.077E-03 0.000E+00

     total cpu time spent up to now is        4.8 secs

     total energy              =   -2062.55666833 Ry
     estimated scf accuracy    <      18.00308642 Ry

     iteration #  2     ecut=    60.00 Ry     beta= 0.70
     Davidson diagonalization with overlap
     ethr =  4.79E-03,  avg # of iterations =  3.0

     negative rho (up, down):  1.997E-03 0.000E+00

     total cpu time spent up to now is        7.1 secs

     total energy              =   -2068.02808746 Ry
     estimated scf accuracy    <      14.44214616 Ry

     iteration #  3     ecut=    60.00 Ry     beta= 0.70
     Davidson diagonalization with overlap
     ethr =  3.84E-03,  avg # of iterations =  2.0

     negative rho (up, down):  1.804E-03 0.000E+00

     total cpu time spent up to now is        9.0 secs

     total energy              =   -2070.09275309 Ry
     estimated scf accuracy    <       0.53434398 Ry

     iteration #  4     ecut=    60.00 Ry     beta= 0.70
     Davidson diagonalization with overlap
     ethr =  1.42E-04,  avg # of iterations =  4.0

     negative rho (up, down):  2.266E-03 0.000E+00

     total cpu time spent up to now is       11.5 secs

     total energy              =   -2070.56337374 Ry
     estimated scf accuracy    <       0.62133614 Ry

     iteration #  5     ecut=    60.00 Ry     beta= 0.70
     Davidson diagonalization with overlap
     ethr =  1.42E-04,  avg # of iterations =  2.0

     negative rho (up, down):  2.377E-03 0.000E+00

     total cpu time spent up to now is       13.1 secs

     total energy              =   -2070.57386536 Ry
     estimated scf accuracy    <       0.15307982 Ry

     iteration #  6     ecut=    60.00 Ry     beta= 0.70
     Davidson diagonalization with overlap
     ethr =  4.07E-05,  avg # of iterations =  2.0

     negative rho (up, down):  2.413E-03 0.000E+00

     total cpu time spent up to now is       14.7 secs

     total energy              =   -2070.57036409 Ry
     estimated scf accuracy    <       0.06484689 Ry

     iteration #  7     ecut=    60.00 Ry     beta= 0.70
     Davidson diagonalization with overlap
     ethr =  1.72E-05,  avg # of iterations =  2.0

     negative rho (up, down):  2.465E-03 0.000E+00

     total cpu time spent up to now is       16.3 secs

     total energy              =   -2070.56264738 Ry
     estimated scf accuracy    <       0.02802043 Ry

     iteration #  8     ecut=    60.00 Ry     beta= 0.70
     Davidson diagonalization with overlap
     ethr =  7.45E-06,  avg # of iterations =  3.0

     negative rho (up, down):  2.446E-03 0.000E+00

     total cpu time spent up to now is       18.3 secs

     total energy              =   -2070.56904286 Ry
     estimated scf accuracy    <       0.00072357 Ry

     iteration #  9     ecut=    60.00 Ry     beta= 0.70
     Davidson diagonalization with overlap
     ethr =  1.92E-07,  avg # of iterations =  5.0

     negative rho (up, down):  2.421E-03 0.000E+00

     total cpu time spent up to now is       20.7 secs

     total energy              =   -2070.56974928 Ry
     estimated scf accuracy    <       0.00061689 Ry

     iteration # 10     ecut=    60.00 Ry     beta= 0.70
     Davidson diagonalization with overlap
     ethr =  1.64E-07,  avg # of iterations =  2.0

     negative rho (up, down):  2.398E-03 0.000E+00

     total cpu time spent up to now is       22.3 secs

     total energy              =   -2070.56952507 Ry
     estimated scf accuracy    <       0.00056223 Ry

     iteration # 11     ecut=    60.00 Ry     beta= 0.70
     Davidson diagonalization with overlap
     ethr =  1.50E-07,  avg # of iterations =  2.0

     negative rho (up, down):  2.390E-03 0.000E+00

     total cpu time spent up to now is       24.1 secs

     total energy              =   -2070.56957187 Ry
     estimated scf accuracy    <       0.00004452 Ry

     iteration # 12     ecut=    60.00 Ry     beta= 0.70
     Davidson diagonalization with overlap
     ethr =  1.18E-08,  avg # of iterations =  3.0

     negative rho (up, down):  2.391E-03 0.000E+00

     total cpu time spent up to now is       26.4 secs

     total energy              =   -2070.56959074 Ry
     estimated scf accuracy    <       0.00000471 Ry

     iteration # 13     ecut=    60.00 Ry     beta= 0.70
     Davidson diagonalization with overlap
     ethr =  1.25E-09,  avg # of iterations =  3.0

     negative rho (up, down):  2.393E-03 0.000E+00

     total cpu time spent up to now is       28.3 secs

     total energy              =   -2070.56958971 Ry
     estimated scf accuracy    <       0.00000471 Ry

     iteration # 14     ecut=    60.00 Ry     beta= 0.70
     Davidson diagonalization with overlap
     ethr =  1.25E-09,  avg # of iterations =  2.0

     negative rho (up, down):  2.393E-03 0.000E+00

     total cpu time spent up to now is       29.9 secs

     total energy              =   -2070.56958969 Ry
     estimated scf accuracy    <       0.00000078 Ry

     iteration # 15     ecut=    60.00 Ry     beta= 0.70
     Davidson diagonalization with overlap
     ethr =  2.06E-10,  avg # of iterations =  3.0

     negative rho (up, down):  2.393E-03 0.000E+00

     total cpu time spent up to now is       31.9 secs

     total energy              =   -2070.56958999 Ry
     estimated scf accuracy    <       0.00000008 Ry

     iteration # 16     ecut=    60.00 Ry     beta= 0.70
     Davidson diagonalization with overlap
     ethr =  2.03E-11,  avg # of iterations =  3.0

     negative rho (up, down):  2.393E-03 0.000E+00

     total cpu time spent up to now is       33.8 secs

     total energy              =   -2070.56958998 Ry
     estimated scf accuracy    <       0.00000010 Ry

     iteration # 17     ecut=    60.00 Ry     beta= 0.70
     Davidson diagonalization with overlap
     ethr =  2.03E-11,  avg # of iterations =  2.0

     negative rho (up, down):  2.393E-03 0.000E+00

     total cpu time spent up to now is       35.5 secs

     total energy              =   -2070.56958999 Ry
     estimated scf accuracy    <       0.00000002 Ry

     iteration # 18     ecut=    60.00 Ry     beta= 0.70
     Davidson diagonalization with overlap
     ethr =  5.34E-12,  avg # of iterations =  3.0

     negative rho (up, down):  2.393E-03 0.000E+00

     total cpu time spent up to now is       37.6 secs

     total energy              =   -2070.56958999 Ry
     estimated scf accuracy    <          3.2E-09 Ry

     iteration # 19     ecut=    60.00 Ry     beta= 0.70
     Davidson diagonalization with overlap
     ethr =  8.53E-13,  avg # of iterations =  2.0

     negative rho (up, down):  2.393E-03 0.000E+00

     total cpu time spent up to now is       39.2 secs

     total energy              =   -2070.56958999 Ry
     estimated scf accuracy    <          5.6E-10 Ry

     iteration # 20     ecut=    60.00 Ry     beta= 0.70
     Davidson diagonalization with overlap
     ethr =  1.48E-13,  avg # of iterations =  3.0

     negative rho (up, down):  2.393E-03 0.000E+00

     total cpu time spent up to now is       41.1 secs

     End of self-consistent calculation

          k = 0.0000 0.0000 0.0000 (103459 PWs)   bands (ev):

   -25.3038 -25.2112 -25.1509 -25.0569 -24.8020 -24.6252 -24.4872 -24.3848
   -24.3225 -24.2950 -24.2721 -24.2298 -24.0965 -24.0461 -24.0369 -23.9849
   -23.9568 -23.8998 -23.8660 -23.8318 -23.7686 -23.7065 -23.6693 -23.5934
   -23.5741 -23.4780 -23.4199 -23.3116 -23.2778 -23.2115 -23.1831 -23.1383
   -23.1244 -23.0913 -22.7845 -22.7811 -22.7062 -22.6612 -22.4919 -22.3526
   -22.1986 -21.9969 -21.9097 -21.8909 -21.8409 -21.7385 -21.6512 -13.4317
   -13.2945 -13.2217 -13.1308 -12.9426 -12.8340 -12.6457 -12.5170 -12.4840
   -12.4474 -12.4255 -12.4071 -12.3445 -12.3153 -12.2633 -12.2592 -12.2165
   -12.1823 -12.0810 -12.0296 -11.9642 -11.9443 -11.8722 -11.8355 -11.8284
   -11.8104 -11.6735 -11.5967 -11.5812 -11.5182 -11.4530 -11.4310 -11.4159
   -11.3134 -11.1261 -11.1192 -10.9712 -10.9584 -10.8738 -10.7141 -10.5830
   -10.4297 -10.2372 -10.1936 -10.1597 -10.1333  -9.8940  -9.7215  -9.6896
    -9.6662  -9.5851  -9.3631  -9.3422  -9.2272  -9.0098  -8.9617  -8.9219
    -8.7673  -8.6929  -8.6609  -8.5906  -8.4801  -8.4332  -8.3565  -8.2637
    -8.2552  -8.1581  -8.1398  -8.1063  -8.0222  -7.9541  -7.9139  -7.8107
    -7.7222  -7.7053  -7.6303  -7.5951  -7.5307  -7.4510  -7.3959  -7.3732
    -7.3319  -7.2769  -7.1680  -7.1533  -7.1275  -7.0693  -7.0072  -6.9588
    -6.8996  -6.8617  -6.8054  -6.7673  -6.7001  -6.6233  -6.5609  -6.5308
    -6.4619  -6.4299  -6.4171  -6.3536  -6.3391  -6.3097  -6.2886  -6.2451
    -6.2136  -6.2008  -6.1549  -6.1339  -6.0716  -6.0451  -6.0096  -5.9917
    -5.9749  -5.9497  -5.8984  -5.8744  -5.8059  -5.7779  -5.7204  -5.6915
    -5.6431  -5.5973  -5.5710  -5.5621  -5.4757  -5.4453  -5.3599  -5.2467
    -5.1749  -5.1285  -5.0332  -4.8506  -4.6337  -4.5815  -4.4897  -4.3185
    -4.2922  -4.1174  -4.0971  -3.7373

     occupation numbers 
     1.0000   1.0000   1.0000   1.0000   1.0000   1.0000   1.0000   1.0000
     1.0000   1.0000   1.0000   1.0000   1.0000   1.0000   1.0000   1.0000
     1.0000   1.0000   1.0000   1.0000   1.0000   1.0000   1.0000   1.0000
     1.0000   1.0000   1.0000   1.0000   1.0000   1.0000   1.0000   1.0000
     1.0000   1.0000   1.0000   1.0000   1.0000   1.0000   1.0000   1.0000
     1.0000   1.0000   1.0000   1.0000   1.0000   1.0000   1.0000   1.0000
     1.0000   1.0000   1.0000   1.0000   1.0000   1.0000   1.0000   1.0000
     1.0000   1.0000   1.0000   1.0000   1.0000   1.0000   1.0000   1.0000
     1.0000   1.0000   1.0000   1.0000   1.0000   1.0000   1.0000   1.0000
     1.0000   1.0000   1.0000   1.0000   1.0000   1.0000   1.0000   1.0000
     1.0000   1.0000   1.0000   1.0000   1.0000   1.0000   1.0000   1.0000
     1.0000   1.0000   1.0000   1.0000   1.0000   1.0000   1.0000   1.0000
     1.0000   1.0000   1.0000   1.0000   1.0000   1.0000   1.0000   1.0000
     1.0000   1.0000   1.0000   1.0000   1.0000   1.0000   1.0000   1.0000
     1.0000   1.0000   1.0000   1.0000   1.0000   1.0000   1.0000   1.0000
     1.0000   1.0000   1.0000   1.0000   1.0000   1.0000   1.0000   1.0000
     1.0000   1.0000   1.0000   1.0000   1.0000   1.0000   1.0000   1.0000
     1.0000   1.0000   1.0000   1.0000   1.0000   1.0000   1.0000   1.0000
     1.0000   1.0000   1.0000   1.0000   1.0000   1.0000   1.0000   1.0000
     1.0000   1.0000   1.0000   1.0000   1.0000   1.0000   1.0000   1.0000
     1.0000   1.0000   1.0000   1.0000   1.0000   1.0000   1.0000   1.0000
     1.0000   1.0000   1.0000   1.0000   1.0000   1.0000   1.0000   1.0000
     1.0000   1.0000   1.0000   1.0000   1.0000   1.0000   1.0000   1.0000
     1.0000   1.0000   1.0000   1.0000

     highest occupied level (ev):    -3.7373

!    total energy              =   -2070.56958999 Ry
     estimated scf accuracy    <          6.9E-11 Ry

     The total energy is the sum of the following terms:
     one-electron contribution =   -5321.72581123 Ry
     hartree contribution      =    2754.42081544 Ry
     xc contribution           =    -415.19273426 Ry
     ewald contribution        =    1358.68791809 Ry
     one-center paw contrib.   =    -446.75977803 Ry
      -> PAW hartree energy AE =      56.31586392 Ry
      -> PAW hartree energy PS =     -56.04806481 Ry
      -> PAW xc energy AE      =     -33.96668744 Ry
      -> PAW xc energy PS      =      14.68700080 Ry
      -> total E_H with PAW    =    2754.68861454 Ry
      -> total E_XC with PAW   =    -434.47242090 Ry

     convergence has been achieved in  20 iterations

     negative rho (up, down):  2.393E-03 0.000E+00

     Forces acting on atoms (cartesian axes, Ry/au):

     atom    1 type  2   force =    -0.00336852    0.02010260    0.02530324
     atom    2 type  1   force =    -0.02614881   -0.02629847   -0.05011985
     atom    3 type  1   force =     0.02528034    0.01777850    0.03375627
     atom    4 type  2   force =     0.01686261   -0.00185422    0.01408475
     atom    5 type  1   force =    -0.05717566   -0.01884103   -0.01448238
     atom    6 type  1   force =     0.03889767    0.02865130    0.00064095
     atom    7 type  2   force =    -0.00465880   -0.00427583   -0.04400257
     atom    8 type  1   force =    -0.02201655    0.00394741    0.02456387
     atom    9 type  1   force =     0.01311444    0.00743218    0.01248937
     atom   10 type  2   force =     0.03007895    0.01569048   -0.00010359
     atom   11 type  1   force =     0.00383624    0.01838464   -0.03000450
     atom   12 type  1   force =    -0.03546655   -0.04158892    0.02284602
     atom   13 type  2   force =     0.01487501    0.00542232    0.00630939
     atom   14 type  1   force =    -0.03697987    0.00880111   -0.01475479
     atom   15 type  1   force =     0.03122208   -0.00271377    0.00097795
     atom   16 type  2   force =    -0.01267314   -0.02039295   -0.00689824
     atom   17 type  1   force =     0.00043455    0.03198236   -0.00134319
     atom   18 type  1   force =     0.02218954   -0.03070270   -0.01281081
     atom   19 type  2   force =    -0.00775196    0.01853670    0.01096689
     atom   20 type  1   force =    -0.02457325    0.00090182   -0.01458180
     atom   21 type  1   force =     0.03773204   -0.02904967    0.02122950
     atom   22 type  2   force =     0.00895948    0.00095145    0.01239662
     atom   23 type  1   force =    -0.01887487   -0.03062213    0.01960754
     atom   24 type  1   force =     0.01940961    0.02928106   -0.02677292
     atom   25 type  2   force =    -0.01850116    0.02851582    0.01726431
     atom   26 type  1   force =     0.03770646   -0.01574385   -0.02082877
     atom   27 type  1   force =    -0.00445026   -0.00946350    0.00008176
     atom   28 type  2   force =    -0.02714954    0.02235808    0.04249610
     atom   29 type  1   force =     0.02912772   -0.01317031   -0.04603510
     atom   30 type  1   force =    -0.01061458   -0.00493398    0.01582786
     atom   31 type  2   force =    -0.01494246    0.01484929   -0.04310760
     atom   32 type  1   force =     0.05731822    0.00265027    0.00101078
     atom   33 type  1   force =    -0.04107121   -0.01497115    0.03247232
     atom   34 type  2   force =    -0.00515552    0.01309806    0.01636185
     atom   35 type  1   force =     0.03849280   -0.02053650    0.00330291
     atom   36 type  1   force =    -0.04108828    0.00117300    0.00180704
     atom   37 type  2   force =     0.01314139   -0.01382758    0.03746787
     atom   38 type  1   force =    -0.04468302    0.00838605   -0.02853101
     atom   39 type  1   force =     0.01915058    0.00393159    0.02033792
     atom   40 type  2   force =    -0.00226519   -0.00011130    0.01444142
     atom   41 type  1   force =    -0.03328189   -0.00785293    0.03571516
     atom   42 type  1   force =     0.04400350    0.01138096   -0.04461702
     atom   43 type  2   force =    -0.02136370   -0.01176735   -0.01566849
     atom   44 type  1   force =    -0.00512252    0.00012746   -0.01513385
     atom   45 type  1   force =     0.00777398    0.01184177    0.02781666
     atom   46 type  2   force =     0.02765653    0.03245801    0.01541691
     atom   47 type  1   force =     0.01901225   -0.02065220    0.01837422
     atom   48 type  1   force =    -0.04637837   -0.01605477   -0.02318723
     atom   49 type  2   force =    -0.01746296   -0.00110288   -0.02800952
     atom   50 type  1   force =     0.03431569    0.01735078    0.04705675
     atom   51 type  1   force =    -0.01120958   -0.00991704   -0.03793858
     atom   52 type  2   force =     0.00315626   -0.01784786   -0.02738358
     atom   53 type  1   force =     0.01671578   -0.02590642   -0.00124934
     atom   54 type  1   force =    -0.02499244    0.03719354    0.01195560
     atom   55 type  2   force =     0.03882647    0.01189570    0.00548792
     atom   56 type  1   force =    -0.01285321   -0.01193471   -0.01699497
     atom   57 type  1   force =    -0.03852334    0.01732521    0.00360741
     atom   58 type  2   force =     0.00732058   -0.01156421   -0.00976364
     atom   59 type  1   force =    -0.01149208    0.00661965    0.01376992
     atom   60 type  1   force =    -0.00439188    0.00216309   -0.00645809
     atom   61 type  2   force =    -0.02346038    0.00262431   -0.01324872
     atom   62 type  1   force =     0.00576372    0.02111569   -0.01477592
     atom   63 type  1   force =     0.02327815   -0.01277047    0.01230332
     atom   64 type  2   force =     0.00135176    0.02257278    0.00421962
     atom   65 type  1   force =     0.01896887    0.00692795   -0.04795394
     atom   66 type  1   force =    -0.02233063   -0.02998761    0.03847241
     atom   67 type  2   force =     0.01013427   -0.02283411    0.03387889
     atom   68 type  1   force =     0.00343109    0.00292704    0.01998167
     atom   69 type  1   force =    -0.01547173    0.00232385   -0.04883102
     atom   70 type  2   force =    -0.00513745    0.02577407   -0.00707204
     atom   71 type  1   force =     0.01217276   -0.04638155   -0.00003045
     atom   72 type  1   force =     0.00837652    0.02211583    0.02947255
     atom   73 type  2   force =     0.00397416    0.04076540   -0.01091153
     atom   74 type  1   force =    -0.02131039    0.02247319   -0.00819507
     atom   75 type  1   force =     0.00131023   -0.04753894    0.02795834
     atom   76 type  2   force =     0.02476457   -0.00447254   -0.00671805
     atom   77 type  1   force =    -0.04483379   -0.02298493    0.05389805
     atom   78 type  1   force =    -0.00138246    0.02553965   -0.05148124
     atom   79 type  2   force =    -0.05245768   -0.00630090    0.00667288
     atom   80 type  1   force =     0.05041391    0.02071513    0.00077758
     atom   81 type  1   force =    -0.00913168   -0.02547058   -0.00176967
     atom   82 type  2   force =    -0.01896961   -0.02579042   -0.02298633
     atom   83 type  1   force =    -0.00369436    0.02819270    0.05088809
     atom   84 type  1   force =     0.03657760   -0.00106917   -0.03050446
     atom   85 type  2   force =    -0.00506904    0.00345726   -0.01638331
     atom   86 type  1   force =     0.02982918   -0.00868925    0.03757770
     atom   87 type  1   force =    -0.01560229    0.00996566   -0.02545734
     atom   88 type  2   force =     0.02686265    0.01974711    0.00601981
     atom   89 type  1   force =    -0.04187247    0.03222331    0.00177581
     atom   90 type  1   force =     0.01135685   -0.05512676   -0.00652813
     atom   91 type  2   force =     0.00875782   -0.02876017    0.01385143
     atom   92 type  1   force =    -0.01899408    0.03560882    0.04044375
     atom   93 type  1   force =     0.01096981   -0.01293046   -0.04981004
     atom   94 type  2   force =     0.02012372   -0.01265774    0.01248212
     atom   95 type  1   force =    -0.01437391   -0.02953670   -0.04908002
     atom   96 type  1   force =    -0.00388309    0.04896537    0.03775349
     atom   97 type  2   force =     0.04192424   -0.00147805   -0.02057681
     atom   98 type  1   force =    -0.01980149   -0.03668225    0.04028274
     atom   99 type  1   force =    -0.00749383    0.02210721   -0.01997646
     atom  100 type  2   force =     0.00500395    0.03363358   -0.01455298
     atom  101 type  1   force =    -0.04635081   -0.00190429   -0.01093208
     atom  102 type  1   force =     0.04798836   -0.02715384    0.02183473
     atom  103 type  2   force =     0.02085686   -0.01491632   -0.01921218
     atom  104 type  1   force =     0.04580097    0.02176894    0.02244615
     atom  105 type  1   force =    -0.04771492   -0.01180582   -0.02089711
     atom  106 type  2   force =    -0.03278880   -0.00865459   -0.02668626
     atom  107 type  1   force =     0.01666395   -0.04659171    0.02713642
     atom  108 type  1   force =     0.01290078    0.05605835   -0.00041210
     atom  109 type  2   force =     0.00163406    0.01634171    0.02479339
     atom  110 type  1   force =    -0.02536405   -0.04124995   -0.01891621
     atom  111 type  1   force =     0.01423889    0.02250120   -0.00743354
     atom  112 type  2   force =     0.03835742   -0.01487005    0.00792424
     atom  113 type  1   force =     0.01226343   -0.03016711   -0.00772779
     atom  114 type  1   force =    -0.05323463    0.03282648    0.00037068
     atom  115 type  2   force =    -0.01161623   -0.01005665   -0.00867891
     atom  116 type  1   force =    -0.04724376    0.00905437    0.01058836
     atom  117 type  1   force =     0.04851013    0.00186891   -0.00531129
     atom  118 type  2   force =    -0.01701267    0.02176314   -0.02599002
     atom  119 type  1   force =     0.03699416   -0.01793510    0.04333613
     atom  120 type  1   force =    -0.01974422   -0.00034713   -0.02232097
     atom  121 type  2   force =     0.03485243   -0.00157214    0.00718958
     atom  122 type  1   force =    -0.03149295   -0.03950916   -0.03058819
     atom  123 type  1   force =    -0.00898704    0.03850809    0.02504240
     atom  124 type  2   force =    -0.00823681   -0.00152781   -0.03433726
     atom  125 type  1   force =    -0.01862001   -0.02521220    0.03254590
     atom  126 type  1   force =     0.03767896    0.02231822   -0.00920508
     atom  127 type  2   force =    -0.00859617   -0.03565753    0.00541281
     atom  128 type  1   force =    -0.04621875    0.03322411    0.01213854
     atom  129 type  1   force =     0.05481738   -0.00019420   -0.01385036
     atom  130 type  2   force =     0.03063986   -0.01797917    0.02265352
     atom  131 type  1   force =     0.01994450    0.01298151    0.00857201
     atom  132 type  1   force =    -0.05096452    0.01029580   -0.03450656
     atom  133 type  2   force =     0.00041807   -0.01244857   -0.00561656
     atom  134 type  1   force =     0.03878232   -0.01328634    0.02579069
     atom  135 type  1   force =    -0.02392952    0.00470464   -0.03010357
     atom  136 type  2   force =    -0.00310092    0.00392234    0.02067561
     atom  137 type  1   force =     0.01464610   -0.03881842   -0.01148238
     atom  138 type  1   force =    -0.02197786    0.05446208   -0.00670656
     atom  139 type  2   force =     0.02153298    0.01166810    0.03582689
     atom  140 type  1   force =    -0.00829148    0.01302035   -0.04567750
     atom  141 type  1   force =     0.00195949   -0.01122757    0.03398407
     The non-local contrib.  to forces
     atom    1 type  2   force =     1.93236307   -0.13326758    0.02416573
     atom    2 type  1   force =    -0.06201141   -0.03452797   -0.06706282
     atom    3 type  1   force =    -0.04390047    0.05154921    0.06909339
     atom    4 type  2   force =     0.75497871   -1.30730542    1.62988059
     atom    5 type  1   force =    -0.08914208   -0.00470007   -0.03831772
     atom    6 type  1   force =     0.05656028    0.07037335   -0.03788332
     atom    7 type  2   force =    -0.52342962   -1.10237785   -1.36563146
     atom    8 type  1   force =    -0.02610777   -0.00499111    0.09414591
     atom    9 type  1   force =     0.06804028    0.06705518   -0.01724410
     atom   10 type  2   force =     2.00934096   -0.06818580    0.41710222
     atom   11 type  1   force =    -0.03375924    0.05967002   -0.06974684
     atom   12 type  1   force =    -0.06874662   -0.05488860    0.04235868
     atom   13 type  2   force =     0.18178994    0.89410528    1.66823116
     atom   14 type  1   force =    -0.08403004   -0.01228408   -0.04736176
     atom   15 type  1   force =     0.07410001   -0.04221012   -0.04314822
     atom   16 type  2   force =    -1.84310768   -0.31582582    0.02261600
     atom   17 type  1   force =     0.04524097    0.08532084    0.01722677
     atom   18 type  1   force =     0.06223047   -0.07373866   -0.01852898
     atom   19 type  2   force =     0.95252324    1.69979493   -0.35702859
     atom   20 type  1   force =    -0.09656585   -0.00908609   -0.01652066
     atom   21 type  1   force =     0.04019334   -0.07903992    0.04295981
     atom   22 type  2   force =    -1.17848139   -0.52171501   -1.35481936
     atom   23 type  1   force =     0.00661782   -0.04714181    0.08507781
     atom   24 type  1   force =     0.06026658    0.07385736   -0.00631657
     atom   25 type  2   force =    -1.24995825    0.73996999   -0.98418366
     atom   26 type  1   force =     0.08834153   -0.03548402   -0.02706334
     atom   27 type  1   force =    -0.01450737   -0.00534329    0.09516949
     atom   28 type  2   force =     0.80495786    0.08982682    1.60098912
     atom   29 type  1   force =     0.03586873   -0.02190345   -0.08897989
     atom   30 type  1   force =    -0.09239726    0.02515562   -0.00261276
     atom   31 type  2   force =    -0.82978800    0.59104919   -1.87881975
     atom   32 type  1   force =     0.09659443    0.00293769    0.01818885
     atom   33 type  1   force =    -0.05436007   -0.03071220    0.07656148
     atom   34 type  2   force =     0.30024596    1.45824103   -1.32370608
     atom   35 type  1   force =     0.07008370   -0.05758210    0.03426145
     atom   36 type  1   force =    -0.08552554   -0.01751255    0.03701695
     atom   37 type  2   force =    -0.09093955    0.71499389    1.79206221
     atom   38 type  1   force =    -0.06999545    0.00534847   -0.06969722
     atom   39 type  1   force =     0.08215229   -0.04639220   -0.03121551
     atom   40 type  2   force =     1.00108757   -0.66012933    1.81049628
     atom   41 type  1   force =    -0.09688189   -0.00803606   -0.01272839
     atom   42 type  1   force =     0.04644344    0.03673734   -0.07723044
     atom   43 type  2   force =    -0.78128223    1.49746431   -0.59717048
     atom   44 type  1   force =    -0.01537244   -0.08194989   -0.04609376
     atom   45 type  1   force =     0.06116559   -0.00898606    0.07484458
     atom   46 type  2   force =     0.50040651    2.00403128    0.31915926
     atom   47 type  1   force =     0.06213823   -0.06959044    0.02846451
     atom   48 type  1   force =    -0.08296727   -0.03407494   -0.03969902
     atom   49 type  2   force =    -1.97765272   -0.46666146    0.70971381
     atom   50 type  1   force =     0.07441152    0.03588690    0.05225218
     atom   51 type  1   force =     0.01848203   -0.00755428   -0.09471294
     atom   52 type  2   force =    -0.85063647   -1.10236411   -1.08970315
     atom   53 type  1   force =     0.08622473   -0.02437145    0.03803656
     atom   54 type  1   force =    -0.02512297    0.09225630    0.01861107
     atom   55 type  2   force =     0.38217588    0.22582199   -1.62382300
     atom   56 type  1   force =     0.03267881   -0.07430025    0.05154574
     atom   57 type  1   force =    -0.04560186    0.06639502    0.05556436
     atom   58 type  2   force =     1.41401711    0.08657973    0.96945478
     atom   59 type  1   force =    -0.09069281    0.01730094    0.02858990
     atom   60 type  1   force =     0.00517581   -0.03137508   -0.09028284
     atom   61 type  2   force =    -1.61159846   -0.42823661    0.73985789
     atom   62 type  1   force =     0.00437584    0.05440893   -0.07841519
     atom   63 type  1   force =     0.08770475   -0.02589795    0.03395615
     atom   64 type  2   force =     0.30133601    2.01161957    0.92186955
     atom   65 type  1   force =     0.01355849   -0.01591559   -0.09492466
     atom   66 type  1   force =    -0.03002185   -0.07831144    0.05030759
     atom   67 type  2   force =     0.44620336   -1.78424509    0.62841894
     atom   68 type  1   force =    -0.00738300    0.07287131    0.06587559
     atom   69 type  1   force =    -0.01833173    0.02929036   -0.09265749
     atom   70 type  2   force =    -0.94236657    0.84405234   -1.48087480
     atom   71 type  1   force =     0.01332848   -0.09592778    0.01212182
     atom   72 type  1   force =     0.03484375    0.05297238    0.07201287
     atom   73 type  2   force =    -1.38779269    1.07819166    0.63485013
     atom   74 type  1   force =     0.06534374    0.04162963   -0.06117543
     atom   75 type  1   force =     0.01951609   -0.09520943    0.01745967
     atom   76 type  2   force =     1.83890300    0.89391328    0.95480450
     atom   77 type  1   force =    -0.06644724   -0.05254446    0.04666474
     atom   78 type  1   force =    -0.01336834    0.00553569   -0.09682865
     atom   79 type  2   force =    -1.39761938    0.67717180    1.38323757
     atom   80 type  1   force =     0.09206072    0.02973860   -0.01295895
     atom   81 type  1   force =    -0.02876293   -0.06754385   -0.06302473
     atom   82 type  2   force =    -0.03902021   -2.16590884    0.18718951
     atom   83 type  1   force =    -0.01665930    0.06420870    0.07149692
     atom   84 type  1   force =     0.00443078    0.04006077   -0.08971650
     atom   85 type  2   force =     0.90022101    1.20551771   -0.97109281
     atom   86 type  1   force =     0.03258857   -0.04664002    0.08127021
     atom   87 type  1   force =    -0.08659589   -0.03364286   -0.02949344
     atom   88 type  2   force =     1.91979504    1.23240087    0.18083342
     atom   89 type  1   force =    -0.08950889    0.04086901    0.00453076
     atom   90 type  1   force =     0.00034210   -0.09762190   -0.00774992
     atom   91 type  2   force =     1.14134425   -1.64844044    1.01968088
     atom   92 type  1   force =    -0.03445602    0.07849514    0.04757073
     atom   93 type  1   force =    -0.02570433   -0.00438011   -0.09516154
     atom   94 type  2   force =     2.21500115   -0.21033281    0.01659768
     atom   95 type  1   force =    -0.05865212   -0.04504795   -0.06461240
     atom   96 type  1   force =    -0.04825550    0.04946506    0.06882759
     atom   97 type  2   force =     2.09870652    0.00300647   -0.52373019
     atom   98 type  1   force =    -0.03827424   -0.05431107    0.07118453
     atom   99 type  1   force =    -0.06474937    0.05837712   -0.04528910
     atom  100 type  2   force =     0.49200014    2.05084168   -0.80523855
     atom  101 type  1   force =    -0.09094216   -0.03708002   -0.00413754
     atom  102 type  1   force =     0.06625258   -0.05959720    0.03925522
     atom  103 type  2   force =     0.63137625   -0.59432917   -1.79620084
     atom  104 type  1   force =     0.06046964    0.03594061    0.06907758
     atom  105 type  1   force =    -0.09276681   -0.00072961    0.02842332
     atom  106 type  2   force =    -1.44418713   -0.41700781   -1.58279280
     atom  107 type  1   force =     0.04123778   -0.07090407    0.05421190
     atom  108 type  1   force =     0.03165398    0.09045322    0.02127551
     atom  109 type  2   force =    -0.75608467    0.79261798    1.50440885
     atom  110 type  1   force =    -0.03318950   -0.08058498   -0.04478278
     atom  111 type  1   force =     0.07933697    0.03864589   -0.04366108
     atom  112 type  2   force =     1.80009963    1.19441282    0.51971632
     atom  113 type  1   force =     0.01382969   -0.09320123   -0.02451772
     atom  114 type  1   force =    -0.09179841    0.02755239    0.00277562
     atom  115 type  2   force =    -0.60833003    0.33573426   -2.02891586
     atom  116 type  1   force =    -0.06496999   -0.01458857    0.07188316
     atom  117 type  1   force =     0.09280281   -0.00581339    0.02943802
     atom  118 type  2   force =    -0.03745526    2.22858900   -0.35033970
     atom  119 type  1   force =     0.05108792   -0.04689776    0.06648129
     atom  120 type  1   force =    -0.05381238   -0.05719328   -0.05792059
     atom  121 type  2   force =     2.15685434   -0.68459912    0.49069672
     atom  122 type  1   force =    -0.06388430   -0.05327421   -0.04979392
     atom  123 type  1   force =    -0.03199592    0.08760983    0.02802197
     atom  124 type  2   force =    -0.21356658   -1.01991397   -1.85195879
     atom  125 type  1   force =    -0.04602298   -0.02585154    0.08256724
     atom  126 type  1   force =     0.04543674    0.08772986    0.00500415
     atom  127 type  2   force =    -0.59513228   -2.21153561    0.18491126
     atom  128 type  1   force =    -0.06493299    0.07265207    0.00901268
     atom  129 type  1   force =     0.09027971    0.02895143   -0.02534651
     atom  130 type  2   force =    -0.12982520   -1.08739297    1.66529730
     atom  131 type  1   force =     0.08479572    0.03730362   -0.02297271
     atom  132 type  1   force =    -0.06939548    0.02013912   -0.06432107
     atom  133 type  2   force =    -1.43539762   -0.83523532    1.18451044
     atom  134 type  1   force =     0.09402247    0.00334766    0.02371196
     atom  135 type  1   force =    -0.01898918    0.02989705   -0.09172102
     atom  136 type  2   force =     1.39482549    0.43574641   -1.28497469
     atom  137 type  1   force =    -0.02102665   -0.09091541    0.02902158
     atom  138 type  1   force =    -0.05350491    0.06828756    0.04674964
     atom  139 type  2   force =    -1.63893394    0.10500180    0.60814822
     atom  140 type  1   force =     0.03185427    0.01705705   -0.09138473
     atom  141 type  1   force =     0.07219662   -0.01775917    0.06038666
     The ionic contribution  to forces
     atom    1 type  2   force =     0.16515149    9.38021617   10.37337736
     atom    2 type  1   force =     2.84765973    2.57688116    3.64789255
     atom    3 type  1   force =     1.65386169   -0.05163776   -0.37548746
     atom    4 type  2   force =     5.23300279   10.79284487  -11.50942008
     atom    5 type  1   force =     4.26153897    1.69264279    0.02136723
     atom    6 type  1   force =    -0.84690097   -0.62119760   -0.75707394
     atom    7 type  2   force =    -8.35984047   10.47647988    2.52102049
     atom    8 type  1   force =    -0.64938289    1.28110444   -3.03543958
     atom    9 type  1   force =    -3.55852484   -0.41229617    0.47038249
     atom   10 type  2   force =     1.00480614   11.22884967   -5.45362840
     atom   11 type  1   force =     1.61919765    0.01492038    1.15836551
     atom   12 type  1   force =     3.29512283    3.36009520   -2.25257973
     atom   13 type  2   force =     1.85600015    1.10437043  -15.04316712
     atom   14 type  1   force =     2.76948356    0.77463163   -0.77375133
     atom   15 type  1   force =    -1.90067194    1.87639348   -0.71786366
     atom   16 type  2   force =     1.69712973    1.85514299    0.40293001
     atom   17 type  1   force =    -1.54404303   -2.37850735   -0.33992346
     atom   18 type  1   force =    -2.50172455    2.42457551    0.92608966
     atom   19 type  2   force =    -7.23212974   -7.43613753   -6.93826148
     atom   20 type  1   force =     2.33342527   -0.29213924   -0.48063505
     atom   21 type  1   force =    -2.44617458    1.61507710   -2.77857958
     atom   22 type  2   force =     3.96437220    1.21393489   11.95641330
     atom   23 type  1   force =     0.30859452    1.66098321   -1.11038974
     atom   24 type  1   force =    -1.41540318   -2.22683800    1.79989412
     atom   25 type  2   force =    -3.52534658   -3.89183917    0.49069722
     atom   26 type  1   force =    -3.86438960    0.79453070    0.67860259
     atom   27 type  1   force =    -0.62368609   -0.37884751   -3.14663828
     atom   28 type  2   force =   -11.53824244   -0.30701252   10.17328218
     atom   29 type  1   force =    -2.88925612    0.69311639    4.97946863
     atom   30 type  1   force =     1.05807263   -0.79075810    1.95176863
     atom   31 type  2   force =    -7.85215753    3.44580997   -6.87934436
     atom   32 type  1   force =    -4.66033151    0.51810847   -1.94285056
     atom   33 type  1   force =     0.63478128    1.83402119   -3.95634049
     atom   34 type  2   force =    -8.59210140  -12.62245096   12.56351995
     atom   35 type  1   force =    -3.62333423   -0.07441898    0.26972308
     atom   36 type  1   force =     1.24687971   -1.39951284    0.44940125
     atom   37 type  2   force =     9.27312478  -12.41699708    3.02040228
     atom   38 type  1   force =     3.96855509   -1.86446135    3.46553502
     atom   39 type  1   force =    -1.37389800   -0.55021671    1.78287774
     atom   40 type  2   force =    -9.37082552   10.38557226    5.61298687
     atom   41 type  1   force =     2.09642819    2.14381527    1.78514318
     atom   42 type  1   force =    -2.89383884    0.15217222    3.91354781
     atom   43 type  2   force =    -3.73641191    2.44856833   -6.18331008
     atom   44 type  1   force =    -0.21443210    3.07115737    0.13701440
     atom   45 type  1   force =    -2.65818644    1.04914335   -3.51771491
     atom   46 type  2   force =    11.45608663    6.29158282    3.28660730
     atom   47 type  1   force =     0.43388335    4.04623566   -0.37812660
     atom   48 type  1   force =     4.42300088    2.64499257    2.10122751
     atom   49 type  2   force =    13.60156654   -8.84816737   -8.27561954
     atom   50 type  1   force =    -1.02798784   -2.83424050   -3.27657136
     atom   51 type  1   force =     1.37839322   -1.56565449    1.93839812
     atom   52 type  2   force =     9.06785383   -2.30766423    1.67796258
     atom   53 type  1   force =    -1.54832751    0.32818759   -1.05806921
     atom   54 type  1   force =     2.34626706   -3.56972323   -0.83303977
     atom   55 type  2   force =    -0.56958745  -10.24171922    7.12782216
     atom   56 type  1   force =    -1.08921158    0.73216518   -1.31911051
     atom   57 type  1   force =     1.65928587   -3.52243001   -0.89921310
     atom   58 type  2   force =     3.56251830    4.99766388   -9.77207467
     atom   59 type  1   force =     3.70960979    0.05686823   -2.29341472
     atom   60 type  1   force =     1.13322517    2.02499143    1.40215247
     atom   61 type  2   force =    -6.87137330    6.33510711    3.46945817
     atom   62 type  1   force =    -1.90319792   -0.42277354    3.41794776
     atom   63 type  1   force =    -3.93361267    1.78616071   -0.13518520
     atom   64 type  2   force =    -9.66959916  -11.39985661   -8.60964812
     atom   65 type  1   force =    -2.12228924   -0.72520542    1.97511909
     atom   66 type  1   force =    -0.59183739    1.13948196   -2.95132410
     atom   67 type  2   force =    -3.84384033   -3.42368642   11.50797883
     atom   68 type  1   force =    -0.17997230   -3.32038133    0.20077800
     atom   69 type  1   force =     0.11239505   -2.29266073    5.24615085
     atom   70 type  2   force =    12.85365788   -0.61005083    9.05632940
     atom   71 type  1   force =     1.30100491    3.22823453    0.33796676
     atom   72 type  1   force =     0.52968674   -1.24233859   -0.95082388
     atom   73 type  2   force =     9.29211845   11.35293291    2.10355234
     atom   74 type  1   force =    -0.81592703    0.77111672    2.81933293
     atom   75 type  1   force =     0.49372982    5.26539435    0.13703340
     atom   76 type  2   force =   -11.16923805  -10.54156879   -2.90908612
     atom   77 type  1   force =     0.60007315    0.10168697   -1.98272633
     atom   78 type  1   force =    -0.62939204   -2.04637756    3.61699878
     atom   79 type  2   force =   -10.16335161   -6.48034985    2.20357488
     atom   80 type  1   force =    -4.81880002   -1.94153665    1.37393036
     atom   81 type  1   force =    -1.50961009    1.33380652    2.82371940
     atom   82 type  2   force =    10.31006805    7.03930558   -9.77087745
     atom   83 type  1   force =     2.10332663   -2.13532565   -4.14431703
     atom   84 type  1   force =     1.36553034   -0.62155899    1.26755478
     atom   85 type  2   force =    -7.15130614    7.95973773   -4.82066005
     atom   86 type  1   force =    -2.31596232    3.04501839   -3.63830252
     atom   87 type  1   force =     2.00934027    2.43148611   -0.17582477
     atom   88 type  2   force =    -4.41435121    5.48136487   -8.67635460
     atom   89 type  1   force =     3.27148007   -0.10134768   -1.58357512
     atom   90 type  1   force =    -0.19655954    4.28488872   -0.92298043
     atom   91 type  2   force =     1.39140564   -8.23548157   -6.18331429
     atom   92 type  1   force =     1.79872172   -4.18664860   -2.41927836
     atom   93 type  1   force =     1.45519764   -1.94688488    3.12262312
     atom   94 type  2   force =    -8.53791086    0.96387041    9.91839511
     atom   95 type  1   force =     1.56749457    1.67895108    3.53604067
     atom   96 type  1   force =     0.98042744   -1.58595418   -0.02636156
     atom   97 type  2   force =     3.92364952   -6.20730930  -12.55172226
     atom   98 type  1   force =     2.56534308    0.99518815   -4.49986665
     atom   99 type  1   force =     3.47946694   -2.70819515   -0.70490507
     atom  100 type  2   force =   -10.53998554   -1.41647885   -6.53831737
     atom  101 type  1   force =     1.11343658    1.67547542   -0.87686953
     atom  102 type  1   force =    -3.66283732    2.53644832   -2.64384271
     atom  103 type  2   force =    -1.97928868   -9.51202349    0.01188429
     atom  104 type  1   force =    -2.41492065   -2.76645721   -3.29978865
     atom  105 type  1   force =     2.56548298   -1.57731132   -1.15655814
     atom  106 type  2   force =    -5.01362384    7.23477230    3.11286436
     atom  107 type  1   force =    -2.10110049    3.67765889   -2.04135186
     atom  108 type  1   force =    -1.99217689   -2.43917694   -0.66551085
     atom  109 type  2   force =     6.59174848    4.46908052   -4.00564071
     atom  110 type  1   force =     2.25434340    3.36714385    0.92272047
     atom  111 type  1   force =    -1.61118659   -0.59333038    1.09968588
     atom  112 type  2   force =    -6.86941729  -12.36452266  -10.82513429
     atom  113 type  1   force =    -1.15822943    0.96030107   -1.06017389
     atom  114 type  1   force =     2.94241235   -2.53673273   -1.82203407
     atom  115 type  2   force =    10.63332445   -5.33717916   15.40536399
     atom  116 type  1   force =     3.87420502   -0.42054911   -0.20898002
     atom  117 type  1   force =    -1.54307339   -0.60989225    1.01538849
     atom  118 type  2   force =    -2.59578833   -9.10677981   -9.38058001
     atom  119 type  1   force =    -2.36332163    0.99704239   -3.30544588
     atom  120 type  1   force =     1.48686709    0.87649642   -0.43043389
     atom  121 type  2   force =   -10.73610922    7.96804027    1.73202308
     atom  122 type  1   force =     1.44094418    2.66708760    2.39982388
     atom  123 type  1   force =    -0.30441218   -0.83419782   -0.56682150
     atom  124 type  2   force =    10.11875423    7.33458837   12.95409913
     atom  125 type  1   force =     2.91105017    1.91452899   -0.90905955
     atom  126 type  1   force =    -0.06578963   -2.05860277    1.68194991
     atom  127 type  2   force =     5.20110748   -6.76410261   10.49552553
     atom  128 type  1   force =     3.04934644   -4.05164049    1.14792093
     atom  129 type  1   force =    -2.72339357   -2.67254694    2.56658064
     atom  130 type  2   force =    10.91662055    0.53644947   -4.05124447
     atom  131 type  1   force =    -0.15036049   -1.52077460    0.47153074
     atom  132 type  1   force =     3.42507421   -1.10999789    2.29257068
     atom  133 type  2   force =     7.06610359   -5.84170630    3.38203202
     atom  134 type  1   force =    -2.08763718   -1.07721585   -0.03376226
     atom  135 type  1   force =     1.54322796   -2.16083765    3.94044865
     atom  136 type  2   force =    -1.14352640   -6.20401773   -2.53676236
     atom  137 type  1   force =     0.90411489    2.25889329   -1.76974040
     atom  138 type  1   force =     1.78400146   -3.39117931   -2.41976597
     atom  139 type  2   force =     2.28546893   10.86558319    5.59948955
     atom  140 type  1   force =    -1.28150530    0.96664297    3.86879710
     atom  141 type  1   force =    -2.28846724    2.65980126   -0.81846656
     The local contribution  to forces
     atom    1 type  2   force =    -2.08146170   -9.22766986  -10.37144582
     atom    2 type  1   force =    -2.81179730   -2.56865178   -3.63094976
     atom    3 type  1   force =    -1.58468096    0.01786707    0.34015045
     atom    4 type  2   force =    -5.96314149   -9.50061779    9.91036930
     atom    5 type  1   force =    -4.22957286   -1.70678380    0.00246795
     atom    6 type  1   force =     0.82923849    0.57947577    0.79559807
     atom    7 type  2   force =     8.87340162   -9.38919422   -1.21300755
     atom    8 type  1   force =     0.65347406   -1.27216585    2.96585788
     atom    9 type  1   force =     3.50359922    0.35267346   -0.44064897
     atom   10 type  2   force =    -2.96350689  -11.14533463    5.04021165
     atom   11 type  1   force =    -1.58160236   -0.05620572   -1.11862333
     atom   12 type  1   force =    -3.26184305   -3.34679571    2.23306716
     atom   13 type  2   force =    -2.02081733   -1.98424462   13.39770535
     atom   14 type  1   force =    -2.72243356   -0.75354646    0.80635823
     atom   15 type  1   force =     1.85779398   -1.83689720    0.76198983
     atom   16 type  2   force =     0.11503741   -1.56307875   -0.43246003
     atom   17 type  1   force =     1.49923688    2.32516922    0.32135354
     atom   18 type  1   force =     2.46168394   -2.38153976   -0.92037158
     atom   19 type  2   force =     6.28115619    5.77204187    7.30272031
     atom   20 type  1   force =    -2.26143285    0.30212704    0.48257390
     atom   21 type  1   force =     2.44371337   -1.56508701    2.75684936
     atom   22 type  2   force =    -2.78843063   -0.69634167  -10.60246644
     atom   23 type  1   force =    -0.33408721   -1.64446362    1.04491955
     atom   24 type  1   force =     1.37454636    2.18226189   -1.82035051
     atom   25 type  2   force =     4.74410101    3.18790704    0.50149309
     atom   26 type  1   force =     3.81375464   -0.77479066   -0.67236806
     atom   27 type  1   force =     0.63374319    0.37472720    3.05155064
     atom   28 type  2   force =    10.71359344    0.24071738  -11.71533358
     atom   29 type  1   force =     2.88251521   -0.68438332   -4.93652418
     atom   30 type  1   force =    -0.97629020    0.76066855   -1.93332814
     atom   31 type  2   force =     8.65824966   -4.01590327    8.69561439
     atom   32 type  1   force =     4.62105579   -0.51839593    1.92567268
     atom   33 type  1   force =    -0.62149263   -1.81828033    3.91225177
     atom   34 type  2   force =     8.28939896   11.19186780  -11.23638987
     atom   35 type  1   force =     3.59174331    0.11146457   -0.30068167
     atom   36 type  1   force =    -1.20244250    1.41819838   -0.48461121
     atom   37 type  2   force =    -9.16962923   11.69503186   -4.75662848
     atom   38 type  1   force =    -3.94324288    1.86749895   -3.42436906
     atom   39 type  1   force =     1.31089640    0.60054051   -1.73132438
     atom   40 type  2   force =     8.37732337   -9.73244915   -7.39041988
     atom   41 type  1   force =    -2.03282830   -2.14363219   -1.73669965
     atom   42 type  1   force =     2.89139892   -0.17752858   -3.88093454
     atom   43 type  2   force =     4.48856155   -3.94327999    6.75899829
     atom   44 type  1   force =     0.22468201   -2.98908038   -0.10605463
     atom   45 type  1   force =     2.60479498   -1.02831563    3.47068718
     atom   46 type  2   force =   -11.92321503   -8.24292149   -3.58689879
     atom   47 type  1   force =    -0.47700934   -3.99729765    0.36803633
     atom   48 type  1   force =    -4.38641218   -2.62697256   -2.08471581
     atom   49 type  2   force =   -11.66147201    9.30898641    7.54463246
     atom   50 type  1   force =     0.98789233    2.81570453    3.27137611
     atom   51 type  1   force =    -1.40808472    1.56329171   -1.88162406
     atom   52 type  2   force =    -8.22237876    3.38122523   -0.62668208
     atom   53 type  1   force =     1.47881864   -0.32972259    1.01878347
     atom   54 type  1   force =    -2.34613667    3.51466071    0.82638444
     atom   55 type  2   force =     0.23062489   10.02981584   -5.51408998
     atom   56 type  1   force =     1.04367951   -0.66979973    1.25056982
     atom   57 type  1   force =    -1.65220754    3.47336029    0.84725618
     atom   58 type  2   force =    -4.95547081   -5.09519288    8.80206441
     atom   59 type  1   force =    -3.63040920   -0.06754941    2.27859479
     atom   60 type  1   force =    -1.14279298   -1.99145330   -1.31832785
     atom   61 type  2   force =     8.44366855   -5.90832284   -4.21538300
     atom   62 type  1   force =     1.90458585    0.38948033   -3.35430863
     atom   63 type  1   force =     3.86918619   -1.77303326    0.11353238
     atom   64 type  2   force =     9.37265447    9.43137522    7.70131162
     atom   65 type  1   force =     2.12769969    0.74804887   -1.92814854
     atom   66 type  1   force =     0.59952855   -1.09115828    2.93948900
     atom   67 type  2   force =     3.41223744    5.16708213  -12.09572662
     atom   68 type  1   force =     0.19078633    3.25043721   -0.24667189
     atom   69 type  1   force =    -0.10953509    2.26569431   -5.20232458
     atom   70 type  2   force =   -11.92574865   -0.19945970   -7.59702728
     atom   71 type  1   force =    -1.30216058   -3.17868864   -0.35011894
     atom   72 type  1   force =    -0.55615392    1.21148211    0.90828380
     atom   73 type  2   force =    -7.91390497  -12.37904393   -2.74309916
     atom   74 type  1   force =     0.72927297   -0.79027318   -2.76635273
     atom   75 type  1   force =    -0.51193566   -5.21772419   -0.12653467
     atom   76 type  2   force =     9.37418031    9.65220977    1.95715725
     atom   77 type  1   force =    -0.57846000   -0.07212759    1.98995976
     atom   78 type  1   force =     0.64137775    2.06638152   -3.57165172
     atom   79 type  2   force =    11.49382213    5.80355541   -3.56644605
     atom   80 type  1   force =     4.77715358    1.93251322   -1.36019394
     atom   81 type  1   force =     1.52924140   -1.29173344   -2.76246455
     atom   82 type  2   force =   -10.29046042   -4.92130016    9.56206456
     atom   83 type  1   force =    -2.09036173    2.09931021    4.12370866
     atom   84 type  1   force =    -1.33338337    0.58042939   -1.20834307
     atom   85 type  2   force =     6.25462859   -9.14974359    5.76545944
     atom   86 type  1   force =     2.31320301   -3.00706780    3.59461028
     atom   87 type  1   force =    -1.93834690   -2.38787771    0.17986086
     atom   88 type  2   force =     2.54130182   -6.68121543    8.50348264
     atom   89 type  1   force =    -3.22384390    0.09270197    1.58082016
     atom   90 type  1   force =     0.20757418   -4.24239380    0.92420219
     atom   91 type  2   force =    -2.51232883    9.83797289    5.18785623
     atom   92 type  1   force =    -1.78325991    4.14376249    2.41215140
     atom   93 type  1   force =    -1.41852359    1.93833463   -3.07727182
[...]
     atom   72 type  1   force =     0.00000000    0.00000000    0.00000000
     atom   73 type  2   force =     0.00000000    0.00000000    0.00000000
     atom   74 type  1   force =     0.00000000    0.00000000    0.00000000
     atom   75 type  1   force =     0.00000000    0.00000000    0.00000000
     atom   76 type  2   force =     0.00000000    0.00000000    0.00000000
     atom   77 type  1   force =     0.00000000    0.00000000    0.00000000
     atom   78 type  1   force =     0.00000000    0.00000000    0.00000000
     atom   79 type  2   force =     0.00000000    0.00000000    0.00000000
     atom   80 type  1   force =     0.00000000    0.00000000    0.00000000
     atom   81 type  1   force =     0.00000000    0.00000000    0.00000000
     atom   82 type  2   force =     0.00000000    0.00000000    0.00000000
     atom   83 type  1   force =     0.00000000    0.00000000    0.00000000
     atom   84 type  1   force =     0.00000000    0.00000000    0.00000000
     atom   85 type  2   force =     0.00000000    0.00000000    0.00000000
     atom   86 type  1   force =     0.00000000    0.00000000    0.00000000
     atom   87 type  1   force =     0.00000000    0.00000000    0.00000000
     atom   88 type  2   force =     0.00000000    0.00000000    0.00000000
     atom   89 type  1   force =     0.00000000    0.00000000    0.00000000
     atom   90 type  1   force =     0.00000000    0.00000000    0.00000000
     atom   91 type  2   force =     0.00000000    0.00000000    0.00000000
     atom   92 type  1   force =     0.00000000    0.00000000    0.00000000
     atom   93 type  1   force =     0.00000000    0.00000000    0.00000000
     atom   94 type  2   force =     0.00000000    0.00000000    0.00000000
     atom   95 type  1   force =     0.00000000    0.00000000    0.00000000
     atom   96 type  1   force =     0.00000000    0.00000000    0.00000000
     atom   97 type  2   force =     0.00000000    0.00000000    0.00000000
     atom   98 type  1   force =     0.00000000    0.00000000    0.00000000
     atom   99 type  1   force =     0.00000000    0.00000000    0.00000000
     atom  100 type  2   force =     0.00000000    0.00000000    0.00000000
     atom  101 type  1   force =     0.00000000    0.00000000    0.00000000
     atom  102 type  1   force =     0.00000000    0.00000000    0.00000000
     atom  103 type  2   force =     0.00000000    0.00000000    0.00000000
     atom  104 type  1   force =     0.00000000    0.00000000    0.00000000
     atom  105 type  1   force =     0.00000000    0.00000000    0.00000000
     atom  106 type  2   force =     0.00000000    0.00000000    0.00000000
     atom  107 type  1   force =     0.00000000    0.00000000    0.00000000
     atom  108 type  1   force =     0.00000000    0.00000000    0.00000000
     atom  109 type  2   force =     0.00000000    0.00000000    0.00000000
     atom  110 type  1   force =     0.00000000    0.00000000    0.00000000
     atom  111 type  1   force =     0.00000000    0.00000000    0.00000000
     atom  112 type  2   force =     0.00000000    0.00000000    0.00000000
     atom  113 type  1   force =     0.00000000    0.00000000    0.00000000
     atom  114 type  1   force =     0.00000000    0.00000000    0.00000000
     atom  115 type  2   force =     0.00000000    0.00000000    0.00000000
     atom  116 type  1   force =     0.00000000    0.00000000    0.00000000
     atom  117 type  1   force =     0.00000000    0.00000000    0.00000000
     atom  118 type  2   force =     0.00000000    0.00000000    0.00000000
     atom  119 type  1   force =     0.00000000    0.00000000    0.00000000
     atom  120 type  1   force =     0.00000000    0.00000000    0.00000000
     atom  121 type  2   force =     0.00000000    0.00000000    0.00000000
     atom  122 type  1   force =     0.00000000    0.00000000    0.00000000
     atom  123 type  1   force =     0.00000000    0.00000000    0.00000000
     atom  124 type  2   force =     0.00000000    0.00000000    0.00000000
     atom  125 type  1   force =     0.00000000    0.00000000    0.00000000
     atom  126 type  1   force =     0.00000000    0.00000000    0.00000000
     atom  127 type  2   force =     0.00000000    0.00000000    0.00000000
     atom  128 type  1   force =     0.00000000    0.00000000    0.00000000
     atom  129 type  1   force =     0.00000000    0.00000000    0.00000000
     atom  130 type  2   force =     0.00000000    0.00000000    0.00000000
     atom  131 type  1   force =     0.00000000    0.00000000    0.00000000
     atom  132 type  1   force =     0.00000000    0.00000000    0.00000000
     atom  133 type  2   force =     0.00000000    0.00000000    0.00000000
     atom  134 type  1   force =     0.00000000    0.00000000    0.00000000
     atom  135 type  1   force =     0.00000000    0.00000000    0.00000000
     atom  136 type  2   force =     0.00000000    0.00000000    0.00000000
     atom  137 type  1   force =     0.00000000    0.00000000    0.00000000
     atom  138 type  1   force =     0.00000000    0.00000000    0.00000000
     atom  139 type  2   force =     0.00000000    0.00000000    0.00000000
     atom  140 type  1   force =     0.00000000    0.00000000    0.00000000
     atom  141 type  1   force =     0.00000000    0.00000000    0.00000000
     The SCF correction term to forces
     atom    1 type  2   force =     0.00000023    0.00000026    0.00000012
     atom    2 type  1   force =     0.00000015    0.00000012    0.00000017
     atom    3 type  1   force =     0.00000005   -0.00000003   -0.00000012
     atom    4 type  2   force =     0.00000024   -0.00000042    0.00000062
     atom    5 type  1   force =     0.00000029    0.00000003    0.00000016
     atom    6 type  1   force =    -0.00000015   -0.00000022    0.00000013
     atom    7 type  2   force =    -0.00000016   -0.00000092   -0.00000118
     atom    8 type  1   force =     0.00000003   -0.00000008   -0.00000035
     atom    9 type  1   force =    -0.00000024   -0.00000029   -0.00000005
     atom   10 type  2   force =     0.00000124    0.00000032    0.00000016
     atom   11 type  1   force =     0.00000017   -0.00000005    0.00000015
     atom   12 type  1   force =     0.00000027    0.00000019   -0.00000009
     atom   13 type  2   force =     0.00000025    0.00000025    0.00000025
     atom   14 type  1   force =     0.00000014    0.00000001    0.00000006
     atom   15 type  1   force =     0.00000000    0.00000006   -0.00000001
     atom   16 type  2   force =    -0.00000152   -0.00000038    0.00000011
     atom   17 type  1   force =    -0.00000029   -0.00000036   -0.00000005
     atom   18 type  1   force =    -0.00000034    0.00000020    0.00000008
     atom   19 type  2   force =     0.00000026    0.00000081    0.00000000
     atom   20 type  1   force =     0.00000016    0.00000012    0.00000001
     atom   21 type  1   force =    -0.00000011    0.00000016   -0.00000010
     atom   22 type  2   force =    -0.00000078   -0.00000033   -0.00000017
     atom   23 type  1   force =    -0.00000002    0.00000008   -0.00000008
     atom   24 type  1   force =    -0.00000018   -0.00000019    0.00000004
     atom   25 type  2   force =    -0.00000007    0.00000061    0.00000001
     atom   26 type  1   force =    -0.00000013    0.00000013    0.00000004
     atom   27 type  1   force =    -0.00000000    0.00000009   -0.00000010
     atom   28 type  2   force =    -0.00000011    0.00000016    0.00000108
     atom   29 type  1   force =    -0.00000011    0.00000006    0.00000034
     atom   30 type  1   force =     0.00000023   -0.00000006    0.00000011
     atom   31 type  2   force =    -0.00000041    0.00000059   -0.00000127
     atom   32 type  1   force =    -0.00000051    0.00000004   -0.00000019
     atom   33 type  1   force =     0.00000019    0.00000018   -0.00000046
     atom   34 type  2   force =     0.00000045    0.00000042   -0.00000013
     atom   35 type  1   force =     0.00000001   -0.00000000    0.00000004
     atom   36 type  1   force =     0.00000003    0.00000001    0.00000004
     atom   37 type  2   force =     0.00000011    0.00000012    0.00000052
     atom   38 type  1   force =     0.00000020   -0.00000004    0.00000024
     atom   39 type  1   force =    -0.00000013   -0.00000001    0.00000006
     atom   40 type  2   force =     0.00000031   -0.00000008    0.00000044
     atom   41 type  1   force =     0.00000009    0.00000004    0.00000002
     atom   42 type  1   force =    -0.00000005   -0.00000003    0.00000015
     atom   43 type  2   force =    -0.00000083    0.00000090   -0.00000046
     atom   44 type  1   force =    -0.00000000    0.00000034    0.00000013
     atom   45 type  1   force =    -0.00000017    0.00000009   -0.00000021
     atom   46 type  2   force =     0.00000021    0.00000093    0.00000024
     atom   47 type  1   force =    -0.00000001    0.00000022   -0.00000002
     atom   48 type  1   force =     0.00000017    0.00000016    0.00000009
     atom   49 type  2   force =    -0.00000150   -0.00000021   -0.00000004
     atom   50 type  1   force =    -0.00000034   -0.00000016   -0.00000019
     atom   51 type  1   force =    -0.00000015    0.00000001    0.00000029
     atom   52 type  2   force =     0.00000025   -0.00000113   -0.00000114
     atom   53 type  1   force =    -0.00000010    0.00000002   -0.00000017
     atom   54 type  1   force =     0.00000011   -0.00000026   -0.00000014
     atom   55 type  2   force =     0.00000036    0.00000029   -0.00000007
     atom   56 type  1   force =     0.00000003    0.00000008   -0.00000002
     atom   57 type  1   force =     0.00000016   -0.00000010   -0.00000004
     atom   58 type  2   force =     0.00000131   -0.00000034    0.00000019
     atom   59 type  1   force =     0.00000012   -0.00000012   -0.00000006
     atom   60 type  1   force =     0.00000010    0.00000004    0.00000013
     atom   61 type  2   force =    -0.00000035   -0.00000010    0.00000018
     atom   62 type  1   force =    -0.00000007   -0.00000004    0.00000013
     atom   63 type  1   force =    -0.00000014    0.00000002   -0.00000002
     atom   64 type  2   force =    -0.00000011    0.00000054    0.00000020
     atom   65 type  1   force =    -0.00000009    0.00000008    0.00000016
     atom   66 type  1   force =     0.00000004    0.00000014   -0.00000009
     atom   67 type  2   force =     0.00000030   -0.00000073    0.00000038
     atom   68 type  1   force =     0.00000004   -0.00000015   -0.00000003
     atom   69 type  1   force =     0.00000003   -0.00000010    0.00000018
     atom   70 type  2   force =    -0.00000033    0.00000069   -0.00000080
     atom   71 type  1   force =    -0.00000008    0.00000033   -0.00000009
     atom   72 type  1   force =    -0.00000007   -0.00000007   -0.00000025
     atom   73 type  2   force =    -0.00000052    0.00000105   -0.00000010
     atom   74 type  1   force =    -0.00000010    0.00000002    0.00000015
     atom   75 type  1   force =    -0.00000005    0.00000032   -0.00000006
     atom   76 type  2   force =     0.00000100    0.00000032    0.00000035
     atom   77 type  1   force =     0.00000028    0.00000014   -0.00000013
     atom   78 type  1   force =     0.00000014   -0.00000001    0.00000035
     atom   79 type  2   force =    -0.00000119    0.00000029    0.00000076
     atom   80 type  1   force =    -0.00000038   -0.00000005    0.00000010
     atom   81 type  1   force =    -0.00000008    0.00000018    0.00000020
     atom   82 type  2   force =    -0.00000058   -0.00000205   -0.00000073
     atom   83 type  1   force =     0.00000003   -0.00000056   -0.00000046
     atom   84 type  1   force =    -0.00000018   -0.00000035    0.00000032
     atom   85 type  2   force =     0.00000011    0.00000048   -0.00000081
     atom   86 type  1   force =    -0.00000010    0.00000017   -0.00000027
     atom   87 type  1   force =     0.00000022    0.00000012   -0.00000000
     atom   88 type  2   force =     0.00000089    0.00000063    0.00000017
     atom   89 type  1   force =     0.00000022    0.00000000    0.00000000
     atom   90 type  1   force =     0.00000008    0.00000022    0.00000003
     atom   91 type  2   force =     0.00000067   -0.00000106    0.00000062
     atom   92 type  1   force =     0.00000011   -0.00000021   -0.00000004
     atom   93 type  1   force =     0.00000006   -0.00000011    0.00000020
     atom   94 type  2   force =     0.00000061   -0.00000017   -0.00000015
     atom   95 type  1   force =     0.00000004    0.00000001    0.00000005
     atom   96 type  1   force =     0.00000001   -0.00000004    0.00000002
     atom   97 type  2   force =     0.00000188    0.00000018   -0.00000039
     atom   98 type  1   force =     0.00000029    0.00000016   -0.00000020
     atom   99 type  1   force =     0.00000026   -0.00000007    0.00000003
     atom  100 type  2   force =     0.00000018    0.00000130   -0.00000044
     atom  101 type  1   force =     0.00000024    0.00000021    0.00000001
     atom  102 type  1   force =    -0.00000022    0.00000030   -0.00000017
     atom  103 type  2   force =     0.00000053   -0.00000056   -0.00000089
     atom  104 type  1   force =    -0.00000006   -0.00000013   -0.00000015
     atom  105 type  1   force =     0.00000020   -0.00000008   -0.00000006
     atom  106 type  2   force =    -0.00000060   -0.00000027   -0.00000059
     atom  107 type  1   force =    -0.00000013    0.00000015   -0.00000017
     atom  108 type  1   force =    -0.00000014   -0.00000023   -0.00000007
     atom  109 type  2   force =    -0.00000008    0.00000045    0.00000029
     atom  110 type  1   force =     0.00000008    0.00000020    0.00000008
     atom  111 type  1   force =    -0.00000005   -0.00000002    0.00000006
     atom  112 type  2   force =     0.00000119   -0.00000024    0.00000006
     atom  113 type  1   force =     0.00000006    0.00000017    0.00000003
     atom  114 type  1   force =     0.00000035   -0.00000013   -0.00000000
     atom  115 type  2   force =    -0.00000000    0.00000008   -0.00000029
     atom  116 type  1   force =     0.00000003   -0.00000005    0.00000007
     atom  117 type  1   force =     0.00000000    0.00000000    0.00000003
     atom  118 type  2   force =     0.00000017    0.00000050   -0.00000014
     atom  119 type  1   force =    -0.00000012    0.00000016   -0.00000019
     atom  120 type  1   force =     0.00000009    0.00000011    0.00000003
     atom  121 type  2   force =     0.00000021   -0.00000007   -0.00000007
     atom  122 type  1   force =     0.00000015    0.00000012    0.00000010
     atom  123 type  1   force =     0.00000004   -0.00000001   -0.00000005
     atom  124 type  2   force =     0.00000004    0.00000017   -0.00000055
     atom  125 type  1   force =     0.00000008    0.00000009   -0.00000017
     atom  126 type  1   force =    -0.00000007   -0.00000013   -0.00000002
     atom  127 type  2   force =    -0.00000056   -0.00000175   -0.00000007
     atom  128 type  1   force =     0.00000027   -0.00000051   -0.00000006
     atom  129 type  1   force =    -0.00000048   -0.00000028    0.00000012
     atom  130 type  2   force =     0.00000013   -0.00000123    0.00000143
     atom  131 type  1   force =    -0.00000026   -0.00000027    0.00000012
     atom  132 type  1   force =     0.00000035   -0.00000018    0.00000038
     atom  133 type  2   force =    -0.00000135   -0.00000086    0.00000041
     atom  134 type  1   force =    -0.00000048   -0.00000009   -0.00000005
     atom  135 type  1   force =    -0.00000001   -0.00000017    0.00000032
     atom  136 type  2   force =     0.00000134    0.00000083   -0.00000062
     atom  137 type  1   force =     0.00000020    0.00000041   -0.00000016
     atom  138 type  1   force =     0.00000036   -0.00000031   -0.00000019
     atom  139 type  2   force =    -0.00000023    0.00000016    0.00000073
     atom  140 type  1   force =    -0.00000005   -0.00000001    0.00000023
     atom  141 type  1   force =    -0.00000002    0.00000009   -0.00000001

     Total force =     0.511387     Total SCF correction =     0.000008

     Writing output data file ./007.save/
 
     init_run     :      6.08s CPU      2.16s WALL (       1 calls)
     electrons    :    139.46s CPU     38.35s WALL (       1 calls)
     forces       :      3.21s CPU      0.92s WALL (       1 calls)

     Called by init_run:
     wfcinit      :      2.40s CPU      0.66s WALL (       1 calls)
     wfcinit:atom :      0.05s CPU      0.01s WALL (       1 calls)
     wfcinit:wfcr :      2.11s CPU      0.57s WALL (       1 calls)
     potinit      :      1.14s CPU      0.32s WALL (       1 calls)
     hinit0       :      0.71s CPU      0.20s WALL (       1 calls)

     Called by electrons:
     c_bands      :     89.77s CPU     23.59s WALL (      20 calls)
     sum_band     :     21.81s CPU      6.69s WALL (      20 calls)
     v_of_rho     :     12.25s CPU      3.27s WALL (      21 calls)
     v_h          :      1.41s CPU      0.38s WALL (      21 calls)
     v_xc         :     11.34s CPU      3.03s WALL (      22 calls)
     newd         :      8.42s CPU      2.91s WALL (      21 calls)
     PAW_pot      :      2.77s CPU      0.72s WALL (      21 calls)
     mix_rho      :      3.25s CPU      0.86s WALL (      20 calls)

     Called by c_bands:
     init_us_2    :      0.93s CPU      0.25s WALL (      41 calls)
     regterg      :     87.69s CPU     23.05s WALL (      20 calls)

     Called by sum_band:
     sum_band:wei :      0.00s CPU      0.00s WALL (      20 calls)
     sum_band:loo :     13.74s CPU      3.59s WALL (      20 calls)
     sum_band:buf :      0.00s CPU      0.00s WALL (      20 calls)
     sum_band:ini :      0.46s CPU      0.12s WALL (      20 calls)
     sum_band:cal :      1.15s CPU      0.29s WALL (      20 calls)
     sum_band:bec :      0.04s CPU      0.01s WALL (      20 calls)
     addusdens    :      6.27s CPU      2.62s WALL (      20 calls)
     addusd:skk   :      2.67s CPU      1.31s WALL (      40 calls)
     addusd:dgemm :      1.83s CPU      0.81s WALL (      40 calls)
     addusd:qvan2 :      1.34s CPU      0.34s WALL (      40 calls)

     Called by *egterg:
     rdiaghg      :      9.07s CPU      2.35s WALL (      73 calls)
     regterg:over :      2.83s CPU      0.73s WALL (      53 calls)
     regterg:upda :      1.66s CPU      0.42s WALL (      53 calls)
     regterg:last :      4.51s CPU      1.15s WALL (      47 calls)
     h_psi        :     64.49s CPU     17.00s WALL (      74 calls)
     s_psi        :      2.81s CPU      0.71s WALL (      74 calls)
     g_psi        :      0.16s CPU      0.04s WALL (      53 calls)

     Called by h_psi:
     h_psi:calbec :      3.51s CPU      0.91s WALL (      74 calls)
     vloc_psi     :     57.81s CPU     15.29s WALL (      74 calls)
     vloc_psi:tg_ :      0.69s CPU      0.18s WALL (      74 calls)
     add_vuspsi   :      2.81s CPU      0.71s WALL (      74 calls)

     General routines
     calbec       :      4.93s CPU      1.27s WALL (      98 calls)
     fft          :     10.51s CPU      2.81s WALL (     238 calls)
     ffts         :      0.63s CPU      0.17s WALL (      41 calls)
     fftw         :     53.10s CPU     14.09s WALL (    6282 calls)
     interpolate  :      1.41s CPU      0.38s WALL (      21 calls)
 
     Parallel routines
     fft_scatt_xy :     11.63s CPU      3.05s WALL (    6561 calls)
     fft_scatt_yz :     21.52s CPU      5.86s WALL (    6561 calls)
     fft_scatt_tg :      6.11s CPU      1.79s WALL (    6282 calls)

     PAW routines
     PAW_pot      :      2.77s CPU      0.72s WALL (      21 calls)
 
     PWSCF        :   2m30.73s CPU     42.86s WALL

 
   This run was terminated on:  23:35:19  25Jun2021            

=------------------------------------------------------------------------------=
   JOB DONE.
=------------------------------------------------------------------------------=
