
     Program PWSCF v.6.6 starts on 26Jun2021 at 12:28: 9 

     This program is part of the open-source Quantum ESPRESSO suite
     for quantum simulation of materials; please cite
         "P. Giannozzi et al., J. Phys.:Condens. Matter 21 395502 (2009);
         "P. Giannozzi et al., J. Phys.:Condens. Matter 29 465901 (2017);
          URL http://www.quantum-espresso.org", 
     in publications or presentations arising from this work. More details at
     http://www.quantum-espresso.org/quote

     Parallel version (MPI & OpenMP), running on     192 processor cores
     Number of MPI processes:                48
     Threads/MPI process:                     4

     MPI processes distributed on     4 nodes
     R & G space division:  proc/nbgrp/npool/nimage =      48
     wavefunctions fft division:  Y-proc x Z-proc =       8      6
     wavefunctions fft division:  task group distribution
                                  #TG    x Z-proc =       8      6
     Fft bands division:     nmany     =       1
     Reading input from _009.in

     Current dimensions of program PWSCF are:
     Max number of different atomic species (ntypx) = 10
     Max number of k-points (npk) =  40000
     Max angular momentum in pseudopotentials (lmaxx) =  3
     file O.pbe-n-kjpaw_psl.0.1.UPF: wavefunction(s)  2P renormalized

     gamma-point specific algorithms are used

     Subspace diagonalization in iterative solution of the eigenvalue problem:
     one sub-group per band group will be used
     ELPA distributed-memory algorithm (size of sub-group:  3*  3 procs)

 
     Parallelization info
     --------------------
     sticks:   dense  smooth     PW     G-vecs:    dense   smooth      PW
     Min        1048     524    126               178948    63208    7842
     Max        1066     536    138               179918    63642    7990
     Sum       50825   25393   6349              8611191  3044011  379965
 


     bravais-lattice index     =            1
     lattice parameter (alat)  =      36.4642  a.u.
     unit-cell volume          =   48484.0033 (a.u.)^3
     number of atoms/cell      =          300
     number of atomic types    =            2
     number of electrons       =       800.00
     number of Kohn-Sham states=          400
     kinetic-energy cutoff     =      60.0000  Ry
     charge density cutoff     =     480.0000  Ry
     convergence threshold     =      1.0E-10
     mixing beta               =       0.7000
     number of iterations used =            8  plain     mixing
     Exchange-correlation= SLA PW PBX PBC
                           (   1   4   3   4   0   0   0)

     celldm(1)=  36.464155  celldm(2)=   0.000000  celldm(3)=   0.000000
     celldm(4)=   0.000000  celldm(5)=   0.000000  celldm(6)=   0.000000

     crystal axes: (cart. coord. in units of alat)
               a(1) = (   1.000000   0.000000   0.000000 )  
               a(2) = (   0.000000   1.000000   0.000000 )  
               a(3) = (   0.000000   0.000000   1.000000 )  

     reciprocal axes: (cart. coord. in units 2 pi/alat)
               b(1) = (  1.000000  0.000000  0.000000 )  
               b(2) = (  0.000000  1.000000  0.000000 )  
               b(3) = (  0.000000  0.000000  1.000000 )  


     PseudoPot. # 1 for H  read from file:
     ./H.pbe-rrkjus_psl.1.0.0.UPF
     MD5 check sum: f52b6d4d1c606e5624b1dc7b2218f220
     Pseudo is Ultrasoft, Zval =  1.0
     Generated using "atomic" code by A. Dal Corso v.5.1
     Using radial grid of  929 points,  2 beta functions with: 
                l(1) =   0
                l(2) =   0
     Q(r) pseudized with 0 coefficients 


     PseudoPot. # 2 for O  read from file:
     ./O.pbe-n-kjpaw_psl.0.1.UPF
     MD5 check sum: 0234752ac141de4415c5fc33072bef88
     Pseudo is Projector augmented-wave + core cor, Zval =  6.0
     Generated using "atomic" code by A. Dal Corso v.5.0.99 svn rev. 10869
     Shape of augmentation charge: BESSEL
     Using radial grid of 1095 points,  4 beta functions with: 
                l(1) =   0
                l(2) =   0
                l(3) =   1
                l(4) =   1
     Q(r) pseudized with 0 coefficients 


     atomic species   valence    mass     pseudopotential
        H              1.00     1.00000     H ( 1.00)
        O              6.00    16.00000     O ( 1.00)

     No symmetry found


                                    s                        frac. trans.

      isym =  1     identity                                     

 cryst.   s( 1) = (     1          0          0      )
                  (     0          1          0      )
                  (     0          0          1      )

 cart.    s( 1) = (  1.0000000  0.0000000  0.0000000 )
                  (  0.0000000  1.0000000  0.0000000 )
                  (  0.0000000  0.0000000  1.0000000 )


     point group C_1 (1)    
     there are  1 classes
     the character table:

       E    
A      1.00

     the symmetry operations in each class and the name of the first element:

     E        1
          identity                                               

   Cartesian axes

     site n.     atom                  positions (alat units)
         1           O   tau(   1) = (   0.2122233   0.1757924   0.3311609  )
         2           H   tau(   2) = (   0.2636847   0.1818558   0.3302799  )
         3           H   tau(   3) = (   0.1959505   0.1595714   0.2847264  )
         4           O   tau(   4) = (  -0.1878752   0.2792335   0.1841874  )
         5           H   tau(   5) = (  -0.1623103   0.2377742   0.2019113  )
         6           H   tau(   6) = (  -0.1776192   0.2856079   0.1338143  )
         7           O   tau(   7) = (   0.0635914   0.1763106   0.2777301  )
         8           H   tau(   8) = (   0.0977954   0.1941382   0.3122968  )
         9           H   tau(   9) = (   0.0884152   0.1490511   0.2413495  )
        10           O   tau(  10) = (  -0.2533862   0.2369968  -0.2690516  )
        11           H   tau(  11) = (  -0.2732815   0.1907696  -0.2814065  )
        12           H   tau(  12) = (  -0.2054592   0.2408836  -0.2883872  )
        13           O   tau(  13) = (  -0.3554436   0.0685163   0.1475995  )
        14           H   tau(  14) = (  -0.3503027   0.1136552   0.1725788  )
        15           H   tau(  15) = (  -0.3436381   0.0750461   0.0975373  )
        16           O   tau(  16) = (   0.1942921   0.1622663  -0.2421963  )
        17           H   tau(  17) = (   0.2412966   0.1632509  -0.2203109  )
        18           H   tau(  18) = (   0.1660997   0.1243309  -0.2209017  )
        19           O   tau(  19) = (   0.0819890  -0.1468548  -0.3777477  )
        20           H   tau(  20) = (   0.0364355  -0.1358836  -0.3555721  )
        21           H   tau(  21) = (   0.0839583  -0.1973834  -0.3890869  )
        22           O   tau(  22) = (  -0.1056716   0.1651166   0.0247243  )
        23           H   tau(  23) = (  -0.0924720   0.1662049  -0.0254001  )
        24           H   tau(  24) = (  -0.1419538   0.1288397   0.0321870  )
        25           O   tau(  25) = (   0.1763609   0.0174694   0.3330784  )
        26           H   tau(  26) = (   0.1843937  -0.0033484   0.2863329  )
        27           H   tau(  27) = (   0.1745989   0.0690863   0.3289842  )
        28           O   tau(  28) = (   0.0614666   0.2601104  -0.0677975  )
        29           H   tau(  29) = (   0.0813671   0.2295341  -0.0310126  )
        30           H   tau(  30) = (   0.0992983   0.2884064  -0.0890972  )
        31           O   tau(  31) = (  -0.1626938   0.1542853   0.3540153  )
        32           H   tau(  32) = (  -0.1585168   0.1429358   0.4043885  )
        33           H   tau(  33) = (  -0.1809463   0.1130851   0.3284142  )
        34           O   tau(  34) = (   0.2980960  -0.1470258   0.2429561  )
        35           H   tau(  35) = (   0.2506250  -0.1263169   0.2414013  )
        36           H   tau(  36) = (   0.3325591  -0.1126301   0.2251803  )
        37           O   tau(  37) = (   0.0379384   0.0175212  -0.2304840  )
        38           H   tau(  38) = (   0.0817817   0.0245693  -0.2038101  )
        39           H   tau(  39) = (  -0.0012562   0.0407903  -0.2058002  )
        40           O   tau(  40) = (  -0.0051275   0.0520362   0.0462832  )
        41           H   tau(  41) = (  -0.0302519   0.0075606   0.0375249  )
        42           H   tau(  42) = (  -0.0394558   0.0896606   0.0557152  )
        43           O   tau(  43) = (  -0.0574699  -0.0683411  -0.1337490  )
        44           H   tau(  44) = (  -0.0067807  -0.0613604  -0.1255296  )
        45           H   tau(  45) = (  -0.0772772  -0.0261407  -0.1563858  )
        46           O   tau(  46) = (   0.0432245   0.0172621   0.1760510  )
        47           H   tau(  47) = (   0.0386121   0.0413086   0.1303939  )
        48           H   tau(  48) = (   0.0099534  -0.0224041   0.1781240  )
        49           O   tau(  49) = (  -0.0954934  -0.0680975   0.0051347  )
        50           H   tau(  50) = (  -0.1420056  -0.0493527   0.0181944  )
        51           H   tau(  51) = (  -0.0890827  -0.0641952  -0.0461660  )
        52           O   tau(  52) = (  -0.0347968   0.3765076   0.1326741  )
        53           H   tau(  53) = (  -0.0196694   0.3616858   0.1799896  )
        54           H   tau(  54) = (  -0.0059411   0.4166713   0.1171269  )
        55           O   tau(  55) = (  -0.1834287  -0.0343496   0.1722678  )
        56           H   tau(  56) = (  -0.2010956  -0.0230986   0.2196870  )
        57           H   tau(  57) = (  -0.1334494  -0.0477358   0.1752218  )
        58           O   tau(  58) = (  -0.3978203  -0.0446367  -0.0263640  )
        59           H   tau(  59) = (  -0.3967527  -0.0693724   0.0191791  )
        60           H   tau(  60) = (  -0.4035831  -0.0791154  -0.0646258  )
        61           O   tau(  61) = (  -0.1643988   0.0938065  -0.2639055  )
        62           H   tau(  62) = (  -0.2149534   0.0929773  -0.2752550  )
        63           H   tau(  63) = (  -0.1376886   0.1101829  -0.3051731  )
        64           O   tau(  64) = (   0.3606996   0.1666195  -0.2110603  )
        65           H   tau(  65) = (   0.3360313   0.1265594  -0.1893719  )
        66           H   tau(  66) = (   0.3771279   0.1532489  -0.2583447  )
        67           O   tau(  67) = (  -0.1584391  -0.2172373   0.1254187  )
        68           H   tau(  68) = (  -0.1946331  -0.1855675   0.1060883  )
        69           H   tau(  69) = (  -0.1125228  -0.2059603   0.1041708  )
        70           O   tau(  70) = (  -0.1401296  -0.2033639  -0.3140558  )
        71           H   tau(  71) = (  -0.1464314  -0.2082198  -0.3652633  )
        72           H   tau(  72) = (  -0.0983437  -0.1742387  -0.3044786  )
        73           O   tau(  73) = (   0.2102021  -0.2083857   0.0141003  )
        74           H   tau(  74) = (   0.2458053  -0.2103757   0.0516729  )
        75           H   tau(  75) = (   0.1678617  -0.1842149   0.0316687  )
        76           O   tau(  76) = (   0.3458779   0.0105250   0.1820108  )
        77           H   tau(  77) = (   0.3065951   0.0141527   0.1484287  )
        78           H   tau(  78) = (   0.3877000   0.0340013   0.1622658  )
        79           O   tau(  79) = (  -0.0751316   0.1976104   0.2340423  )
        80           H   tau(  80) = (  -0.0240485   0.2010308   0.2420232  )
        81           H   tau(  81) = (  -0.0979447   0.1779690   0.2762272  )
        82           O   tau(  82) = (   0.1077975   0.2167853  -0.3285873  )
        83           H   tau(  83) = (   0.1382183   0.2096854  -0.2872160  )
        84           H   tau(  84) = (   0.1115806   0.1757406  -0.3600342  )
        85           O   tau(  85) = (  -0.0707369   0.0743206  -0.1601534  )
        86           H   tau(  86) = (  -0.0634349   0.1196668  -0.1361899  )
        87           H   tau(  87) = (  -0.1032877   0.0808504  -0.1999440  )
        88           O   tau(  88) = (  -0.0107193  -0.2872621   0.2692309  )
        89           H   tau(  89) = (  -0.0623881  -0.2910712   0.2680390  )
        90           H   tau(  90) = (   0.0066884  -0.3027938   0.3155100  )
        91           O   tau(  91) = (   0.2514024   0.1594159   0.0824046  )
        92           H   tau(  92) = (   0.2199451   0.1979213   0.0678420  )
        93           H   tau(  93) = (   0.2945719   0.1792128   0.1030825  )
        94           O   tau(  94) = (   0.2494849  -0.2277783  -0.1192071  )
        95           H   tau(  95) = (   0.2090620  -0.2469481  -0.1453058  )
        96           H   tau(  96) = (   0.2375135  -0.2241972  -0.0689221  )
        97           O   tau(  97) = (   0.2065226  -0.0727099  -0.0183675  )
        98           H   tau(  98) = (   0.1607618  -0.0609458  -0.0396569  )
        99           H   tau(  99) = (   0.2184422  -0.1219740  -0.0291677  )
       100           O   tau( 100) = (  -0.0386785  -0.1756224   0.0717289  )
       101           H   tau( 101) = (  -0.0554384  -0.1360028   0.0428628  )
       102           H   tau( 102) = (  -0.0139428  -0.2097435   0.0415672  )
       103           O   tau( 103) = (  -0.2923217   0.2606805  -0.1198031  )
       104           H   tau( 104) = (  -0.3440371   0.2578301  -0.1215910  )
       105           H   tau( 105) = (  -0.2726285   0.2460660  -0.1654654  )
       106           O   tau( 106) = (   0.3954737  -0.2152576  -0.0809349  )
       107           H   tau( 107) = (   0.3479509  -0.2358888  -0.0818107  )
       108           H   tau( 108) = (   0.4039210  -0.1932841  -0.0347699  )
       109           O   tau( 109) = (  -0.2852736   0.2841568   0.0187645  )
       110           H   tau( 110) = (  -0.2858696   0.2689723  -0.0308002  )
       111           H   tau( 111) = (  -0.2362894   0.2915159   0.0340008  )
       112           O   tau( 112) = (   0.3175301  -0.2195901   0.1108561  )
       113           H   tau( 113) = (   0.3031229  -0.1890915   0.1501907  )
       114           H   tau( 114) = (   0.3603887  -0.2456317   0.1240195  )
       115           O   tau( 115) = (   0.1543356   0.0523989  -0.1482857  )
       116           H   tau( 116) = (   0.2033613   0.0430706  -0.1621694  )
       117           H   tau( 117) = (   0.1531437   0.0691900  -0.0992703  )
       118           O   tau( 118) = (   0.3978058   0.1837215   0.1207027  )
       119           H   tau( 119) = (   0.3911723   0.2218123   0.1552695  )
       120           H   tau( 120) = (   0.4156851   0.2036220   0.0763412  )
       121           O   tau( 121) = (  -0.1910106   0.0600689   0.0704333  )
       122           H   tau( 122) = (  -0.1950736   0.0306328   0.1128773  )
       123           H   tau( 123) = (  -0.2383572   0.0728695   0.0536940  )
       124           O   tau( 124) = (   0.4100881  -0.1475337   0.0401161  )
       125           H   tau( 125) = (   0.4432556  -0.1209479   0.0697595  )
       126           H   tau( 126) = (   0.3702871  -0.1638013   0.0690858  )
       127           O   tau( 127) = (  -0.3769662  -0.1490107  -0.1300746  )
       128           H   tau( 128) = (  -0.3256654  -0.1419004  -0.1281571  )
       129           H   tau( 129) = (  -0.3871186  -0.1980986  -0.1432328  )
       130           O   tau( 130) = (  -0.2401969  -0.1379514  -0.0711609  )
       131           H   tau( 131) = (  -0.2471051  -0.1271720  -0.0209432  )
       132           H   tau( 132) = (  -0.2241418  -0.0953467  -0.0959173  )
       133           O   tau( 133) = (  -0.0543190  -0.0833546   0.1854312  )
       134           H   tau( 134) = (  -0.0499140  -0.1227151   0.1520046  )
       135           H   tau( 135) = (  -0.0444724  -0.1002545   0.2334204  )
       136           O   tau( 136) = (   0.2417631   0.0105768   0.0835966  )
       137           H   tau( 137) = (   0.2335230   0.0611572   0.0758230  )
       138           H   tau( 138) = (   0.2224845  -0.0163770   0.0437956  )
       139           O   tau( 139) = (   0.1095595   0.3651062   0.0414117  )
       140           H   tau( 140) = (   0.1185251   0.3557261  -0.0087541  )
       141           H   tau( 141) = (   0.0830255   0.4093123   0.0462832  )
       142           O   tau( 142) = (   0.1303928   0.2191693   0.0522948  )
       143           H   tau( 143) = (   0.0955670   0.1986987   0.0847367  )
       144           H   tau( 144) = (   0.1189915   0.2689723   0.0438474  )
       145           O   tau( 145) = (  -0.1614293  -0.3050741   0.0118719  )
       146           H   tau( 146) = (  -0.1246238  -0.2769595  -0.0113972  )
       147           H   tau( 147) = (  -0.1518729  -0.3073440   0.0627633  )
       148           O   tau( 148) = (  -0.2484577  -0.1104016   0.0755638  )
       149           H   tau( 149) = (  -0.2975560  -0.1247569   0.0838557  )
       150           H   tau( 150) = (  -0.2350560  -0.0739899   0.1099233  )
       151           O   tau( 151) = (  -0.0353358  -0.3460152   0.1286318  )
       152           H   tau( 152) = (  -0.0301430  -0.3116661   0.1670854  )
       153           H   tau( 153) = (   0.0099015  -0.3512391   0.1039117  )
       154           O   tau( 154) = (   0.1804550  -0.3144232  -0.2202591  )
       155           H   tau( 155) = (   0.1361971  -0.3352928  -0.2373663  )
       156           H   tau( 156) = (   0.1990081  -0.2816755  -0.2558779  )
       157           O   tau( 157) = (   0.2049160  -0.0830281  -0.3548259  )
       158           H   tau( 158) = (   0.1603472  -0.1087381  -0.3610707  )
       159           H   tau( 159) = (   0.2103058  -0.0483162  -0.3929270  )
       160           O   tau( 160) = (  -0.0097191   0.0926145   0.4356903  )
       161           H   tau( 161) = (  -0.0319569   0.1392045   0.4307152  )
       162           H   tau( 162) = (   0.0417734   0.0981597   0.4372968  )
       163           O   tau( 163) = (   0.2975259   0.0401684  -0.1703990  )
       164           H   tau( 164) = (   0.3059733   0.0044667  -0.2070025  )
       165           H   tau( 165) = (   0.2946756   0.0170548  -0.1240889  )
       166           O   tau( 166) = (  -0.0624347   0.2032074  -0.1085520  )
       167           H   tau( 167) = (  -0.0785572   0.2281867  -0.1509909  )
       168           H   tau( 168) = (  -0.0162956   0.2218123  -0.0940361  )
       169           O   tau( 169) = (   0.2392237  -0.2379980  -0.3239438  )
       170           H   tau( 170) = (   0.2404156  -0.2543382  -0.3731095  )
       171           H   tau( 171) = (   0.2163174  -0.1915843  -0.3216947  )
       172           O   tau( 172) = (  -0.2062417   0.0123388   0.3185676  )
       173           H   tau( 173) = (  -0.2081333  -0.0057634   0.3670750  )
       174           H   tau( 174) = (  -0.1567962   0.0187132   0.3044196  )
       175           O   tau( 175) = (  -0.1424254  -0.2542812   0.2631157  )
       176           H   tau( 176) = (  -0.1531063  -0.2424705   0.2137790  )
       177           H   tau( 177) = (  -0.1865900  -0.2576912   0.2900124  )
       178           O   tau( 178) = (  -0.1011940  -0.0047943  -0.4154084  )
       179           H   tau( 179) = (  -0.0978358  -0.0325358  -0.4590547  )
       180           H   tau( 180) = (  -0.1285676   0.0383028  -0.4243895  )
       181           O   tau( 181) = (  -0.2046403   0.3783732  -0.1020481  )
       182           H   tau( 182) = (  -0.1908966   0.3816382  -0.0521828  )
       183           H   tau( 183) = (  -0.2339521   0.3362402  -0.1091843  )
       184           O   tau( 184) = (   0.1719558   0.3466568   0.1691584  )
       185           H   tau( 185) = (   0.1545947   0.3540159   0.1209100  )
       186           H   tau( 186) = (   0.1318957   0.3458795   0.2020149  )
       187           O   tau( 187) = (  -0.3696538  -0.2498191   0.0562334  )
       188           H   tau( 188) = (  -0.3628752  -0.2883660   0.0901783  )
       189           H   tau( 189) = (  -0.3468460  -0.2621326   0.0113536  )
       190           O   tau( 190) = (  -0.0061329  -0.4323492  -0.0163723  )
       191           H   tau( 191) = (   0.0275736  -0.3943983  -0.0059556  )
       192           H   tau( 192) = (  -0.0522512  -0.4117750  -0.0279913  )
       193           O   tau( 193) = (   0.3181519  -0.0610028  -0.2644548  )
       194           H   tau( 194) = (   0.3428203  -0.1063490  -0.2689946  )
       195           H   tau( 195) = (   0.3023456  -0.0451912  -0.3112054  )
       196           O   tau( 196) = (  -0.0230587   0.2825503  -0.2409007  )
       197           H   tau( 197) = (   0.0249824   0.2632717  -0.2429167  )
       198           H   tau( 198) = (  -0.0207836   0.3341672  -0.2366615  )
       199           O   tau( 199) = (   0.1633530   0.3413708  -0.1002705  )
       200           H   tau( 200) = (   0.1571341   0.3760411  -0.1382991  )
       201           H   tau( 201) = (   0.2076109   0.3510619  -0.0751461  )
       202           O   tau( 202) = (   0.0109898   0.1056742  -0.3858116  )
       203           H   tau( 203) = (  -0.0251005   0.0760308  -0.4083344  )
       204           H   tau( 204) = (  -0.0008468   0.1122041  -0.3357805  )
       205           O   tau( 205) = (  -0.4032774  -0.1134230   0.0952570  )
       206           H   tau( 206) = (  -0.4454778  -0.1056960   0.1243304  )
       207           H   tau( 207) = (  -0.3962707  -0.1642781   0.0881571  )
       208           O   tau( 208) = (   0.1164521  -0.2840698  -0.0824896  )
       209           H   tau( 209) = (   0.1354716  -0.3263169  -0.1057017  )
       210           H   tau( 210) = (   0.1307556  -0.2838055  -0.0326814  )
       211           O   tau( 211) = (   0.1034442  -0.3686728   0.0685158  )
       212           H   tau( 212) = (   0.1412241  -0.3447974   0.0947906  )
       213           H   tau( 213) = (   0.1228783  -0.4100492   0.0441066  )
       214           O   tau( 214) = (   0.0664417   0.3678011   0.2651886  )
       215           H   tau( 215) = (   0.0670118   0.3421999   0.3102239  )
       216           H   tau( 216) = (   0.0496507   0.4162049   0.2730141  )
       217           O   tau( 217) = (  -0.1046144  -0.3210204  -0.1365216  )
       218           H   tau( 218) = (  -0.1550135  -0.3300482  -0.1445595  )
       219           H   tau( 219) = (  -0.0871341  -0.2877234  -0.1721766  )
       220           O   tau( 220) = (  -0.0591490   0.0470610   0.3035904  )
       221           H   tau( 221) = (  -0.0266812   0.0698119   0.3369133  )
       222           H   tau( 222) = (  -0.0319102   0.0207343   0.2681944  )
       223           O   tau( 223) = (  -0.2834339  -0.2684448  -0.0500321  )
       224           H   tau( 224) = (  -0.2393781  -0.2865366  -0.0296030  )
       225           H   tau( 225) = (  -0.2824078  -0.2166309  -0.0501824  )
       226           O   tau( 226) = (   0.1835126  -0.1161386  -0.2030017  )
       227           H   tau( 227) = (   0.2058489  -0.0878840  -0.2402788  )
       228           H   tau( 228) = (   0.2191677  -0.1462018  -0.1804218  )
       229           O   tau( 229) = (  -0.1166014   0.2033629  -0.3431965  )
       230           H   tau( 230) = (  -0.1054488   0.2511966  -0.3266490  )
       231           H   tau( 231) = (  -0.0927104   0.1946564  -0.3883561  )
       232           O   tau( 232) = (  -0.3339003  -0.0483421   0.2615609  )
       233           H   tau( 233) = (  -0.3483385  -0.0215905   0.2195833  )
       234           H   tau( 234) = (  -0.3021165  -0.0193361   0.2904270  )
       235           O   tau( 235) = (  -0.3841439   0.0841154  -0.1779136  )
       236           H   tau( 236) = (  -0.4084080   0.0994553  -0.1347803  )
       237           H   tau( 237) = (  -0.3917102   0.0332758  -0.1848010  )
       238           O   tau( 238) = (  -0.2219444   0.0085868  -0.1084950  )
       239           H   tau( 239) = (  -0.1747792   0.0300109  -0.1072772  )
       240           H   tau( 240) = (  -0.2554954   0.0418268  -0.1297896  )
       241           O   tau( 241) = (   0.2000446  -0.3131276   0.1790568  )
       242           H   tau( 242) = (   0.2048124  -0.3180302   0.2304146  )
       243           H   tau( 243) = (   0.2468418  -0.3159365   0.1569797  )
       244           O   tau( 244) = (   0.3006354   0.3142667  -0.0247419  )
       245           H   tau( 245) = (   0.3001171   0.3434437   0.0180908  )
       246           H   tau( 246) = (   0.3489874   0.2979421  -0.0338837  )
       247           O   tau( 247) = (  -0.0211049  -0.2710878  -0.0298984  )
       248           H   tau( 248) = (  -0.0517175  -0.2902420  -0.0670667  )
       249           H   tau( 249) = (   0.0280918  -0.2712588  -0.0462386  )
       250           O   tau( 250) = (  -0.3207421   0.0855664   0.0131157  )
       251           H   tau( 251) = (  -0.3434722   0.1214288  -0.0165796  )
       252           H   tau( 252) = (  -0.3388391   0.0386655   0.0004187  )
       253           O   tau( 253) = (  -0.3833717   0.2345092   0.1067620  )
       254           H   tau( 254) = (  -0.3668190   0.2522331   0.1525746  )
       255           H   tau( 255) = (  -0.3494579   0.2477244   0.0698632  )
       256           O   tau( 256) = (   0.1268170   0.0891423  -0.0194040  )
       257           H   tau( 257) = (   0.1431416   0.1315863   0.0054457  )
       258           H   tau( 258) = (   0.0851503   0.0699155   0.0047201  )
       259           O   tau( 259) = (  -0.0406374  -0.1995652  -0.1936578  )
       260           H   tau( 260) = (  -0.0453794  -0.1497362  -0.1802301  )
       261           H   tau( 261) = (   0.0095388  -0.2125679  -0.1943833  )
       262           O   tau( 262) = (   0.1881768  -0.0410660   0.2110842  )
       263           H   tau( 263) = (   0.2212407  -0.0335152   0.1718532  )
       264           H   tau( 264) = (   0.1395139  -0.0377493   0.1935158  )
       265           O   tau( 265) = (  -0.0223020  -0.0825979  -0.3152114  )
       266           H   tau( 266) = (  -0.0489552  -0.0552659  -0.3502550  )
       267           H   tau( 267) = (   0.0054447  -0.0503529  -0.2856354  )
       268           O   tau( 268) = (  -0.1451721   0.3139557   0.0489780  )
       269           H   tau( 269) = (  -0.1093719   0.3405934   0.0753047  )
       270           H   tau( 270) = (  -0.1256913   0.2679877   0.0349855  )
       271           O   tau( 271) = (   0.1668771   0.1114267   0.2174585  )
       272           H   tau( 272) = (   0.1900943   0.1236054   0.1727861  )
       273           H   tau( 273) = (   0.1432971   0.0655105   0.2127425  )
       274           O   tau( 274) = (   0.1008012  -0.2006172   0.2190133  )
       275           H   tau( 275) = (   0.1333986  -0.2406566   0.2145046  )
       276           H   tau( 276) = (   0.0537966  -0.2180094   0.2321248  )
       277           O   tau( 277) = (   0.3331291  -0.0253426  -0.0488920  )
       278           H   tau( 278) = (   0.2880421  -0.0466630  -0.0348528  )
       279           H   tau( 279) = (   0.3693543  -0.0368424  -0.0136774  )
       280           O   tau( 280) = (   0.0948932  -0.1090853   0.3392973  )
       281           H   tau( 281) = (   0.1121507  -0.1380965   0.3000145  )
       282           H   tau( 282) = (   0.1154156  -0.0616143   0.3360842  )
       283           O   tau( 283) = (  -0.2466180  -0.2068258  -0.2159629  )
       284           H   tau( 284) = (  -0.2041428  -0.2078104  -0.2456374  )
       285           H   tau( 285) = (  -0.2331644  -0.1971502  -0.1668595  )
       286           O   tau( 286) = (   0.0996611  -0.1235598   0.0917848  )
       287           H   tau( 287) = (   0.0490806  -0.1261147   0.0807981  )
       288           H   tau( 288) = (   0.1076938  -0.1397963   0.1403441  )
       289           O   tau( 289) = (   0.0907991  -0.0785038  -0.1046600  )
       290           H   tau( 290) = (   0.1031851  -0.0309448  -0.1211090  )
       291           H   tau( 291) = (   0.1197689  -0.1134955  -0.1296238  )
       292           O   tau( 292) = (   0.0037189   0.1783318   0.1019942  )
       293           H   tau( 293) = (  -0.0141086   0.1696253   0.1498798  )
       294           H   tau( 294) = (  -0.0360925   0.1877120   0.0701741  )
       295           O   tau( 295) = (  -0.3004218   0.1110121  -0.2916055  )
       296           H   tau( 296) = (  -0.3257950   0.0797103  -0.3242237  )
       297           H   tau( 297) = (  -0.3274845   0.1157281  -0.2476638  )
       298           O   tau( 298) = (  -0.0623155  -0.1329607   0.3215734  )
       299           H   tau( 299) = (  -0.0312365  -0.1247829   0.3622554  )
       300           H   tau( 300) = (  -0.0908499  -0.1754151   0.3299171  )

   Crystallographic axes

     site n.     atom                  positions (cryst. coord.)
         1           O   tau(   1) = (  0.2122233  0.1757924  0.3311609  )
         2           H   tau(   2) = (  0.2636847  0.1818558  0.3302799  )
         3           H   tau(   3) = (  0.1959505  0.1595714  0.2847264  )
         4           O   tau(   4) = ( -0.1878752  0.2792335  0.1841874  )
         5           H   tau(   5) = ( -0.1623103  0.2377742  0.2019113  )
         6           H   tau(   6) = ( -0.1776192  0.2856079  0.1338143  )
         7           O   tau(   7) = (  0.0635914  0.1763106  0.2777301  )
         8           H   tau(   8) = (  0.0977954  0.1941382  0.3122968  )
         9           H   tau(   9) = (  0.0884152  0.1490511  0.2413495  )
        10           O   tau(  10) = ( -0.2533862  0.2369968 -0.2690516  )
        11           H   tau(  11) = ( -0.2732815  0.1907696 -0.2814065  )
        12           H   tau(  12) = ( -0.2054592  0.2408836 -0.2883872  )
        13           O   tau(  13) = ( -0.3554436  0.0685163  0.1475995  )
        14           H   tau(  14) = ( -0.3503027  0.1136552  0.1725788  )
        15           H   tau(  15) = ( -0.3436381  0.0750461  0.0975373  )
        16           O   tau(  16) = (  0.1942921  0.1622663 -0.2421963  )
        17           H   tau(  17) = (  0.2412966  0.1632509 -0.2203109  )
        18           H   tau(  18) = (  0.1660997  0.1243309 -0.2209017  )
        19           O   tau(  19) = (  0.0819890 -0.1468548 -0.3777477  )
        20           H   tau(  20) = (  0.0364355 -0.1358836 -0.3555721  )
        21           H   tau(  21) = (  0.0839583 -0.1973834 -0.3890869  )
        22           O   tau(  22) = ( -0.1056716  0.1651166  0.0247243  )
        23           H   tau(  23) = ( -0.0924720  0.1662049 -0.0254001  )
        24           H   tau(  24) = ( -0.1419538  0.1288397  0.0321870  )
        25           O   tau(  25) = (  0.1763609  0.0174694  0.3330784  )
        26           H   tau(  26) = (  0.1843937 -0.0033484  0.2863329  )
        27           H   tau(  27) = (  0.1745989  0.0690863  0.3289842  )
        28           O   tau(  28) = (  0.0614666  0.2601104 -0.0677975  )
        29           H   tau(  29) = (  0.0813671  0.2295341 -0.0310126  )
        30           H   tau(  30) = (  0.0992983  0.2884064 -0.0890972  )
        31           O   tau(  31) = ( -0.1626938  0.1542853  0.3540153  )
        32           H   tau(  32) = ( -0.1585168  0.1429358  0.4043885  )
        33           H   tau(  33) = ( -0.1809463  0.1130851  0.3284142  )
        34           O   tau(  34) = (  0.2980960 -0.1470258  0.2429561  )
        35           H   tau(  35) = (  0.2506250 -0.1263169  0.2414013  )
        36           H   tau(  36) = (  0.3325591 -0.1126301  0.2251803  )
        37           O   tau(  37) = (  0.0379384  0.0175212 -0.2304840  )
        38           H   tau(  38) = (  0.0817817  0.0245693 -0.2038101  )
        39           H   tau(  39) = ( -0.0012562  0.0407903 -0.2058002  )
        40           O   tau(  40) = ( -0.0051275  0.0520362  0.0462832  )
        41           H   tau(  41) = ( -0.0302519  0.0075606  0.0375249  )
        42           H   tau(  42) = ( -0.0394558  0.0896606  0.0557152  )
        43           O   tau(  43) = ( -0.0574699 -0.0683411 -0.1337490  )
        44           H   tau(  44) = ( -0.0067807 -0.0613604 -0.1255296  )
        45           H   tau(  45) = ( -0.0772772 -0.0261407 -0.1563858  )
        46           O   tau(  46) = (  0.0432245  0.0172621  0.1760510  )
        47           H   tau(  47) = (  0.0386121  0.0413086  0.1303939  )
        48           H   tau(  48) = (  0.0099534 -0.0224041  0.1781240  )
        49           O   tau(  49) = ( -0.0954934 -0.0680975  0.0051347  )
        50           H   tau(  50) = ( -0.1420056 -0.0493527  0.0181944  )
        51           H   tau(  51) = ( -0.0890827 -0.0641952 -0.0461660  )
        52           O   tau(  52) = ( -0.0347968  0.3765076  0.1326741  )
        53           H   tau(  53) = ( -0.0196694  0.3616858  0.1799896  )
        54           H   tau(  54) = ( -0.0059411  0.4166713  0.1171269  )
        55           O   tau(  55) = ( -0.1834287 -0.0343496  0.1722678  )
        56           H   tau(  56) = ( -0.2010956 -0.0230986  0.2196870  )
        57           H   tau(  57) = ( -0.1334494 -0.0477358  0.1752218  )
        58           O   tau(  58) = ( -0.3978203 -0.0446367 -0.0263640  )
        59           H   tau(  59) = ( -0.3967527 -0.0693724  0.0191791  )
        60           H   tau(  60) = ( -0.4035831 -0.0791154 -0.0646258  )
        61           O   tau(  61) = ( -0.1643988  0.0938065 -0.2639055  )
        62           H   tau(  62) = ( -0.2149534  0.0929773 -0.2752550  )
        63           H   tau(  63) = ( -0.1376886  0.1101829 -0.3051731  )
        64           O   tau(  64) = (  0.3606996  0.1666195 -0.2110603  )
        65           H   tau(  65) = (  0.3360313  0.1265594 -0.1893719  )
        66           H   tau(  66) = (  0.3771279  0.1532489 -0.2583447  )
        67           O   tau(  67) = ( -0.1584391 -0.2172373  0.1254187  )
        68           H   tau(  68) = ( -0.1946331 -0.1855675  0.1060883  )
        69           H   tau(  69) = ( -0.1125228 -0.2059603  0.1041708  )
        70           O   tau(  70) = ( -0.1401296 -0.2033639 -0.3140558  )
        71           H   tau(  71) = ( -0.1464314 -0.2082198 -0.3652633  )
        72           H   tau(  72) = ( -0.0983437 -0.1742387 -0.3044786  )
        73           O   tau(  73) = (  0.2102021 -0.2083857  0.0141003  )
        74           H   tau(  74) = (  0.2458053 -0.2103757  0.0516729  )
        75           H   tau(  75) = (  0.1678617 -0.1842149  0.0316687  )
        76           O   tau(  76) = (  0.3458779  0.0105250  0.1820108  )
        77           H   tau(  77) = (  0.3065951  0.0141527  0.1484287  )
        78           H   tau(  78) = (  0.3877000  0.0340013  0.1622658  )
        79           O   tau(  79) = ( -0.0751316  0.1976104  0.2340423  )
        80           H   tau(  80) = ( -0.0240485  0.2010308  0.2420232  )
        81           H   tau(  81) = ( -0.0979447  0.1779690  0.2762272  )
        82           O   tau(  82) = (  0.1077975  0.2167853 -0.3285873  )
        83           H   tau(  83) = (  0.1382183  0.2096854 -0.2872160  )
        84           H   tau(  84) = (  0.1115806  0.1757406 -0.3600342  )
        85           O   tau(  85) = ( -0.0707369  0.0743206 -0.1601534  )
        86           H   tau(  86) = ( -0.0634349  0.1196668 -0.1361899  )
        87           H   tau(  87) = ( -0.1032877  0.0808504 -0.1999440  )
        88           O   tau(  88) = ( -0.0107193 -0.2872621  0.2692309  )
        89           H   tau(  89) = ( -0.0623881 -0.2910712  0.2680390  )
        90           H   tau(  90) = (  0.0066884 -0.3027938  0.3155100  )
        91           O   tau(  91) = (  0.2514024  0.1594159  0.0824046  )
        92           H   tau(  92) = (  0.2199451  0.1979213  0.0678420  )
        93           H   tau(  93) = (  0.2945719  0.1792128  0.1030825  )
        94           O   tau(  94) = (  0.2494849 -0.2277783 -0.1192071  )
        95           H   tau(  95) = (  0.2090620 -0.2469481 -0.1453058  )
        96           H   tau(  96) = (  0.2375135 -0.2241972 -0.0689221  )
        97           O   tau(  97) = (  0.2065226 -0.0727099 -0.0183675  )
        98           H   tau(  98) = (  0.1607618 -0.0609458 -0.0396569  )
        99           H   tau(  99) = (  0.2184422 -0.1219740 -0.0291677  )
       100           O   tau( 100) = ( -0.0386785 -0.1756224  0.0717289  )
       101           H   tau( 101) = ( -0.0554384 -0.1360028  0.0428628  )
       102           H   tau( 102) = ( -0.0139428 -0.2097435  0.0415672  )
       103           O   tau( 103) = ( -0.2923217  0.2606805 -0.1198031  )
       104           H   tau( 104) = ( -0.3440371  0.2578301 -0.1215910  )
       105           H   tau( 105) = ( -0.2726285  0.2460660 -0.1654654  )
       106           O   tau( 106) = (  0.3954737 -0.2152576 -0.0809349  )
       107           H   tau( 107) = (  0.3479509 -0.2358888 -0.0818107  )
       108           H   tau( 108) = (  0.4039210 -0.1932841 -0.0347699  )
       109           O   tau( 109) = ( -0.2852736  0.2841568  0.0187645  )
       110           H   tau( 110) = ( -0.2858696  0.2689723 -0.0308002  )
       111           H   tau( 111) = ( -0.2362894  0.2915159  0.0340008  )
       112           O   tau( 112) = (  0.3175301 -0.2195901  0.1108561  )
       113           H   tau( 113) = (  0.3031229 -0.1890915  0.1501907  )
       114           H   tau( 114) = (  0.3603887 -0.2456317  0.1240195  )
       115           O   tau( 115) = (  0.1543356  0.0523989 -0.1482857  )
       116           H   tau( 116) = (  0.2033613  0.0430706 -0.1621694  )
       117           H   tau( 117) = (  0.1531437  0.0691900 -0.0992703  )
       118           O   tau( 118) = (  0.3978058  0.1837215  0.1207027  )
       119           H   tau( 119) = (  0.3911723  0.2218123  0.1552695  )
       120           H   tau( 120) = (  0.4156851  0.2036220  0.0763412  )
       121           O   tau( 121) = ( -0.1910106  0.0600689  0.0704333  )
       122           H   tau( 122) = ( -0.1950736  0.0306328  0.1128773  )
       123           H   tau( 123) = ( -0.2383572  0.0728695  0.0536940  )
       124           O   tau( 124) = (  0.4100881 -0.1475337  0.0401161  )
       125           H   tau( 125) = (  0.4432556 -0.1209479  0.0697595  )
       126           H   tau( 126) = (  0.3702871 -0.1638013  0.0690858  )
       127           O   tau( 127) = ( -0.3769662 -0.1490107 -0.1300746  )
       128           H   tau( 128) = ( -0.3256654 -0.1419004 -0.1281571  )
       129           H   tau( 129) = ( -0.3871186 -0.1980986 -0.1432328  )
       130           O   tau( 130) = ( -0.2401969 -0.1379514 -0.0711609  )
       131           H   tau( 131) = ( -0.2471051 -0.1271720 -0.0209432  )
       132           H   tau( 132) = ( -0.2241418 -0.0953467 -0.0959173  )
       133           O   tau( 133) = ( -0.0543190 -0.0833546  0.1854312  )
       134           H   tau( 134) = ( -0.0499140 -0.1227151  0.1520046  )
       135           H   tau( 135) = ( -0.0444724 -0.1002545  0.2334204  )
       136           O   tau( 136) = (  0.2417631  0.0105768  0.0835966  )
       137           H   tau( 137) = (  0.2335230  0.0611572  0.0758230  )
       138           H   tau( 138) = (  0.2224845 -0.0163770  0.0437956  )
       139           O   tau( 139) = (  0.1095595  0.3651062  0.0414117  )
       140           H   tau( 140) = (  0.1185251  0.3557261 -0.0087541  )
       141           H   tau( 141) = (  0.0830255  0.4093123  0.0462832  )
       142           O   tau( 142) = (  0.1303928  0.2191693  0.0522948  )
       143           H   tau( 143) = (  0.0955670  0.1986987  0.0847367  )
       144           H   tau( 144) = (  0.1189915  0.2689723  0.0438474  )
       145           O   tau( 145) = ( -0.1614293 -0.3050741  0.0118719  )
       146           H   tau( 146) = ( -0.1246238 -0.2769595 -0.0113972  )
       147           H   tau( 147) = ( -0.1518729 -0.3073440  0.0627633  )
       148           O   tau( 148) = ( -0.2484577 -0.1104016  0.0755638  )
       149           H   tau( 149) = ( -0.2975560 -0.1247569  0.0838557  )
       150           H   tau( 150) = ( -0.2350560 -0.0739899  0.1099233  )
       151           O   tau( 151) = ( -0.0353358 -0.3460152  0.1286318  )
       152           H   tau( 152) = ( -0.0301430 -0.3116661  0.1670854  )
       153           H   tau( 153) = (  0.0099015 -0.3512391  0.1039117  )
       154           O   tau( 154) = (  0.1804550 -0.3144232 -0.2202591  )
       155           H   tau( 155) = (  0.1361971 -0.3352928 -0.2373663  )
       156           H   tau( 156) = (  0.1990081 -0.2816755 -0.2558779  )
       157           O   tau( 157) = (  0.2049160 -0.0830281 -0.3548259  )
       158           H   tau( 158) = (  0.1603472 -0.1087381 -0.3610707  )
       159           H   tau( 159) = (  0.2103058 -0.0483162 -0.3929270  )
       160           O   tau( 160) = ( -0.0097191  0.0926145  0.4356903  )
       161           H   tau( 161) = ( -0.0319569  0.1392045  0.4307152  )
       162           H   tau( 162) = (  0.0417734  0.0981597  0.4372968  )
       163           O   tau( 163) = (  0.2975259  0.0401684 -0.1703990  )
       164           H   tau( 164) = (  0.3059733  0.0044667 -0.2070025  )
       165           H   tau( 165) = (  0.2946756  0.0170548 -0.1240889  )
       166           O   tau( 166) = ( -0.0624347  0.2032074 -0.1085520  )
       167           H   tau( 167) = ( -0.0785572  0.2281867 -0.1509909  )
       168           H   tau( 168) = ( -0.0162956  0.2218123 -0.0940361  )
       169           O   tau( 169) = (  0.2392237 -0.2379980 -0.3239438  )
       170           H   tau( 170) = (  0.2404156 -0.2543382 -0.3731095  )
       171           H   tau( 171) = (  0.2163174 -0.1915843 -0.3216947  )
       172           O   tau( 172) = ( -0.2062417  0.0123388  0.3185676  )
       173           H   tau( 173) = ( -0.2081333 -0.0057634  0.3670750  )
       174           H   tau( 174) = ( -0.1567962  0.0187132  0.3044196  )
       175           O   tau( 175) = ( -0.1424254 -0.2542812  0.2631157  )
       176           H   tau( 176) = ( -0.1531063 -0.2424705  0.2137790  )
       177           H   tau( 177) = ( -0.1865900 -0.2576912  0.2900124  )
       178           O   tau( 178) = ( -0.1011940 -0.0047943 -0.4154084  )
       179           H   tau( 179) = ( -0.0978358 -0.0325358 -0.4590547  )
       180           H   tau( 180) = ( -0.1285676  0.0383028 -0.4243895  )
       181           O   tau( 181) = ( -0.2046403  0.3783732 -0.1020481  )
       182           H   tau( 182) = ( -0.1908966  0.3816382 -0.0521828  )
       183           H   tau( 183) = ( -0.2339521  0.3362402 -0.1091843  )
       184           O   tau( 184) = (  0.1719558  0.3466568  0.1691584  )
       185           H   tau( 185) = (  0.1545947  0.3540159  0.1209100  )
       186           H   tau( 186) = (  0.1318957  0.3458795  0.2020149  )
       187           O   tau( 187) = ( -0.3696538 -0.2498191  0.0562334  )
       188           H   tau( 188) = ( -0.3628752 -0.2883660  0.0901783  )
       189           H   tau( 189) = ( -0.3468460 -0.2621326  0.0113536  )
       190           O   tau( 190) = ( -0.0061329 -0.4323492 -0.0163723  )
       191           H   tau( 191) = (  0.0275736 -0.3943983 -0.0059556  )
       192           H   tau( 192) = ( -0.0522512 -0.4117750 -0.0279913  )
       193           O   tau( 193) = (  0.3181519 -0.0610028 -0.2644548  )
       194           H   tau( 194) = (  0.3428203 -0.1063490 -0.2689946  )
       195           H   tau( 195) = (  0.3023456 -0.0451912 -0.3112054  )
       196           O   tau( 196) = ( -0.0230587  0.2825503 -0.2409007  )
       197           H   tau( 197) = (  0.0249824  0.2632717 -0.2429167  )
       198           H   tau( 198) = ( -0.0207836  0.3341672 -0.2366615  )
       199           O   tau( 199) = (  0.1633530  0.3413708 -0.1002705  )
       200           H   tau( 200) = (  0.1571341  0.3760411 -0.1382991  )
       201           H   tau( 201) = (  0.2076109  0.3510619 -0.0751461  )
       202           O   tau( 202) = (  0.0109898  0.1056742 -0.3858116  )
       203           H   tau( 203) = ( -0.0251005  0.0760308 -0.4083344  )
       204           H   tau( 204) = ( -0.0008468  0.1122041 -0.3357805  )
       205           O   tau( 205) = ( -0.4032774 -0.1134230  0.0952570  )
       206           H   tau( 206) = ( -0.4454778 -0.1056960  0.1243304  )
       207           H   tau( 207) = ( -0.3962707 -0.1642781  0.0881571  )
       208           O   tau( 208) = (  0.1164521 -0.2840698 -0.0824896  )
       209           H   tau( 209) = (  0.1354716 -0.3263169 -0.1057017  )
       210           H   tau( 210) = (  0.1307556 -0.2838055 -0.0326814  )
       211           O   tau( 211) = (  0.1034442 -0.3686728  0.0685158  )
       212           H   tau( 212) = (  0.1412241 -0.3447974  0.0947906  )
       213           H   tau( 213) = (  0.1228783 -0.4100492  0.0441066  )
       214           O   tau( 214) = (  0.0664417  0.3678011  0.2651886  )
       215           H   tau( 215) = (  0.0670118  0.3421999  0.3102239  )
       216           H   tau( 216) = (  0.0496507  0.4162049  0.2730141  )
       217           O   tau( 217) = ( -0.1046144 -0.3210204 -0.1365216  )
       218           H   tau( 218) = ( -0.1550135 -0.3300482 -0.1445595  )
       219           H   tau( 219) = ( -0.0871341 -0.2877234 -0.1721766  )
       220           O   tau( 220) = ( -0.0591490  0.0470610  0.3035904  )
       221           H   tau( 221) = ( -0.0266812  0.0698119  0.3369133  )
       222           H   tau( 222) = ( -0.0319102  0.0207343  0.2681944  )
       223           O   tau( 223) = ( -0.2834339 -0.2684448 -0.0500321  )
       224           H   tau( 224) = ( -0.2393781 -0.2865366 -0.0296030  )
       225           H   tau( 225) = ( -0.2824078 -0.2166309 -0.0501824  )
       226           O   tau( 226) = (  0.1835126 -0.1161386 -0.2030017  )
       227           H   tau( 227) = (  0.2058489 -0.0878840 -0.2402788  )
       228           H   tau( 228) = (  0.2191677 -0.1462018 -0.1804218  )
       229           O   tau( 229) = ( -0.1166014  0.2033629 -0.3431965  )
       230           H   tau( 230) = ( -0.1054488  0.2511966 -0.3266490  )
       231           H   tau( 231) = ( -0.0927104  0.1946564 -0.3883561  )
       232           O   tau( 232) = ( -0.3339003 -0.0483421  0.2615609  )
       233           H   tau( 233) = ( -0.3483385 -0.0215905  0.2195833  )
       234           H   tau( 234) = ( -0.3021165 -0.0193361  0.2904270  )
       235           O   tau( 235) = ( -0.3841439  0.0841154 -0.1779136  )
       236           H   tau( 236) = ( -0.4084080  0.0994553 -0.1347803  )
       237           H   tau( 237) = ( -0.3917102  0.0332758 -0.1848010  )
       238           O   tau( 238) = ( -0.2219444  0.0085868 -0.1084950  )
       239           H   tau( 239) = ( -0.1747792  0.0300109 -0.1072772  )
       240           H   tau( 240) = ( -0.2554954  0.0418268 -0.1297896  )
       241           O   tau( 241) = (  0.2000446 -0.3131276  0.1790568  )
       242           H   tau( 242) = (  0.2048124 -0.3180302  0.2304146  )
       243           H   tau( 243) = (  0.2468418 -0.3159365  0.1569797  )
       244           O   tau( 244) = (  0.3006354  0.3142667 -0.0247419  )
       245           H   tau( 245) = (  0.3001171  0.3434437  0.0180908  )
       246           H   tau( 246) = (  0.3489874  0.2979421 -0.0338837  )
       247           O   tau( 247) = ( -0.0211049 -0.2710878 -0.0298984  )
       248           H   tau( 248) = ( -0.0517175 -0.2902420 -0.0670667  )
       249           H   tau( 249) = (  0.0280918 -0.2712588 -0.0462386  )
       250           O   tau( 250) = ( -0.3207421  0.0855664  0.0131157  )
       251           H   tau( 251) = ( -0.3434722  0.1214288 -0.0165796  )
       252           H   tau( 252) = ( -0.3388391  0.0386655  0.0004187  )
       253           O   tau( 253) = ( -0.3833717  0.2345092  0.1067620  )
       254           H   tau( 254) = ( -0.3668190  0.2522331  0.1525746  )
       255           H   tau( 255) = ( -0.3494579  0.2477244  0.0698632  )
       256           O   tau( 256) = (  0.1268170  0.0891423 -0.0194040  )
       257           H   tau( 257) = (  0.1431416  0.1315863  0.0054457  )
       258           H   tau( 258) = (  0.0851503  0.0699155  0.0047201  )
       259           O   tau( 259) = ( -0.0406374 -0.1995652 -0.1936578  )
       260           H   tau( 260) = ( -0.0453794 -0.1497362 -0.1802301  )
       261           H   tau( 261) = (  0.0095388 -0.2125679 -0.1943833  )
       262           O   tau( 262) = (  0.1881768 -0.0410660  0.2110842  )
       263           H   tau( 263) = (  0.2212407 -0.0335152  0.1718532  )
       264           H   tau( 264) = (  0.1395139 -0.0377493  0.1935158  )
       265           O   tau( 265) = ( -0.0223020 -0.0825979 -0.3152114  )
       266           H   tau( 266) = ( -0.0489552 -0.0552659 -0.3502550  )
       267           H   tau( 267) = (  0.0054447 -0.0503529 -0.2856354  )
       268           O   tau( 268) = ( -0.1451721  0.3139557  0.0489780  )
       269           H   tau( 269) = ( -0.1093719  0.3405934  0.0753047  )
       270           H   tau( 270) = ( -0.1256913  0.2679877  0.0349855  )
       271           O   tau( 271) = (  0.1668771  0.1114267  0.2174585  )
       272           H   tau( 272) = (  0.1900943  0.1236054  0.1727861  )
       273           H   tau( 273) = (  0.1432971  0.0655105  0.2127425  )
       274           O   tau( 274) = (  0.1008012 -0.2006172  0.2190133  )
       275           H   tau( 275) = (  0.1333986 -0.2406566  0.2145046  )
       276           H   tau( 276) = (  0.0537966 -0.2180094  0.2321248  )
       277           O   tau( 277) = (  0.3331291 -0.0253426 -0.0488920  )
       278           H   tau( 278) = (  0.2880421 -0.0466630 -0.0348528  )
       279           H   tau( 279) = (  0.3693543 -0.0368424 -0.0136774  )
       280           O   tau( 280) = (  0.0948932 -0.1090853  0.3392973  )
       281           H   tau( 281) = (  0.1121507 -0.1380965  0.3000145  )
       282           H   tau( 282) = (  0.1154156 -0.0616143  0.3360842  )
       283           O   tau( 283) = ( -0.2466180 -0.2068258 -0.2159629  )
       284           H   tau( 284) = ( -0.2041428 -0.2078104 -0.2456374  )
       285           H   tau( 285) = ( -0.2331644 -0.1971502 -0.1668595  )
       286           O   tau( 286) = (  0.0996611 -0.1235598  0.0917848  )
       287           H   tau( 287) = (  0.0490806 -0.1261147  0.0807981  )
       288           H   tau( 288) = (  0.1076938 -0.1397963  0.1403441  )
       289           O   tau( 289) = (  0.0907991 -0.0785038 -0.1046600  )
       290           H   tau( 290) = (  0.1031851 -0.0309448 -0.1211090  )
       291           H   tau( 291) = (  0.1197689 -0.1134955 -0.1296238  )
       292           O   tau( 292) = (  0.0037189  0.1783318  0.1019942  )
       293           H   tau( 293) = ( -0.0141086  0.1696253  0.1498798  )
       294           H   tau( 294) = ( -0.0360925  0.1877120  0.0701741  )
       295           O   tau( 295) = ( -0.3004218  0.1110121 -0.2916055  )
       296           H   tau( 296) = ( -0.3257950  0.0797103 -0.3242237  )
       297           H   tau( 297) = ( -0.3274845  0.1157281 -0.2476638  )
       298           O   tau( 298) = ( -0.0623155 -0.1329607  0.3215734  )
       299           H   tau( 299) = ( -0.0312365 -0.1247829  0.3622554  )
       300           H   tau( 300) = ( -0.0908499 -0.1754151  0.3299171  )

     number of k points=     1
                       cart. coord. in units 2pi/alat
        k(    1) = (   0.0000000   0.0000000   0.0000000), wk =   2.0000000

                       cryst. coord.
        k(    1) = (   0.0000000   0.0000000   0.0000000), wk =   2.0000000

     Dense  grid:  4305596 G-vectors     FFT dimensions: ( 256, 256, 256)

     Smooth grid:  1522006 G-vectors     FFT dimensions: ( 180, 180, 180)

     Dynamical RAM for                 wfc:      24.19 MB

     Dynamical RAM for     wfc (w. buffer):      24.19 MB

     Dynamical RAM for           str. fact:       2.73 MB

     Dynamical RAM for           local pot:       0.00 MB

     Dynamical RAM for          nlocal pot:      72.56 MB

     Dynamical RAM for                qrad:       1.00 MB

     Dynamical RAM for          rho,v,vnew:      12.16 MB

     Dynamical RAM for               rhoin:       4.05 MB

     Dynamical RAM for            rho*nmix:      21.84 MB

     Dynamical RAM for           G-vectors:       5.36 MB

     Dynamical RAM for          h,s,v(r/c):       1.62 MB

     Dynamical RAM for          <psi|beta>:       3.66 MB

     Dynamical RAM for                 psi:      48.38 MB

     Dynamical RAM for                hpsi:      48.38 MB

     Dynamical RAM for                spsi:      48.38 MB

     Dynamical RAM for      wfcinit/wfcrot:      80.81 MB

     Dynamical RAM for           addusdens:     331.77 MB

     Dynamical RAM for          addusforce:     876.01 MB

     Estimated static dynamical RAM per process >     161.44 MB

     Estimated max dynamical RAM per process >       1.01 GB

     Estimated total dynamical RAM >      48.63 GB

     Initial potential from superposition of free atoms

     starting charge  799.99795, renormalised to  800.00000

     negative rho (up, down):  1.565E-03 0.000E+00
     Starting wfcs are  600 randomized atomic wfcs
     Checking if some PAW data can be deallocated... 

     total cpu time spent up to now is        5.1 secs

     Self-consistent Calculation

     iteration #  1     ecut=    60.00 Ry     beta= 0.70
     Davidson diagonalization with overlap
     ethr =  1.00E-02,  avg # of iterations =  2.0

     negative rho (up, down):  3.771E-03 0.000E+00

     total cpu time spent up to now is        9.8 secs

     total energy              =   -4388.92783795 Ry
     estimated scf accuracy    <      37.71618816 Ry

     iteration #  2     ecut=    60.00 Ry     beta= 0.70
     Davidson diagonalization with overlap
     ethr =  4.71E-03,  avg # of iterations =  3.0

     negative rho (up, down):  3.699E-03 0.000E+00

     total cpu time spent up to now is       15.6 secs

     total energy              =   -4400.63573104 Ry
     estimated scf accuracy    <      29.59571431 Ry

     iteration #  3     ecut=    60.00 Ry     beta= 0.70
     Davidson diagonalization with overlap
     ethr =  3.70E-03,  avg # of iterations =  2.0

     negative rho (up, down):  3.458E-03 0.000E+00

     total cpu time spent up to now is       20.3 secs

     total energy              =   -4404.78316032 Ry
     estimated scf accuracy    <       1.08759461 Ry

     iteration #  4     ecut=    60.00 Ry     beta= 0.70
     Davidson diagonalization with overlap
     ethr =  1.36E-04,  avg # of iterations =  5.0

     negative rho (up, down):  4.253E-03 0.000E+00

     total cpu time spent up to now is       27.2 secs

     total energy              =   -4405.72353447 Ry
     estimated scf accuracy    <       1.30843622 Ry

     iteration #  5     ecut=    60.00 Ry     beta= 0.70
     Davidson diagonalization with overlap
     ethr =  1.36E-04,  avg # of iterations =  2.0

     negative rho (up, down):  4.436E-03 0.000E+00

     total cpu time spent up to now is       31.3 secs

     total energy              =   -4405.75208985 Ry
     estimated scf accuracy    <       0.30312366 Ry

     iteration #  6     ecut=    60.00 Ry     beta= 0.70
     Davidson diagonalization with overlap
     ethr =  3.79E-05,  avg # of iterations =  2.0

     negative rho (up, down):  4.507E-03 0.000E+00

     total cpu time spent up to now is       35.1 secs

     total energy              =   -4405.74182329 Ry
     estimated scf accuracy    <       0.12679745 Ry

     iteration #  7     ecut=    60.00 Ry     beta= 0.70
     Davidson diagonalization with overlap
     ethr =  1.58E-05,  avg # of iterations =  2.0

     negative rho (up, down):  4.595E-03 0.000E+00

     total cpu time spent up to now is       39.1 secs

     total energy              =   -4405.73112769 Ry
     estimated scf accuracy    <       0.04558693 Ry

     iteration #  8     ecut=    60.00 Ry     beta= 0.70
     Davidson diagonalization with overlap
     ethr =  5.70E-06,  avg # of iterations =  3.0

     negative rho (up, down):  4.550E-03 0.000E+00

     total cpu time spent up to now is       44.1 secs

     total energy              =   -4405.74390576 Ry
     estimated scf accuracy    <       0.00055085 Ry

     iteration #  9     ecut=    60.00 Ry     beta= 0.70
     Davidson diagonalization with overlap
     ethr =  6.89E-08,  avg # of iterations =  6.0

     negative rho (up, down):  4.501E-03 0.000E+00

     total cpu time spent up to now is       51.4 secs

     total energy              =   -4405.74485926 Ry
     estimated scf accuracy    <       0.00182488 Ry

     iteration # 10     ecut=    60.00 Ry     beta= 0.70
     Davidson diagonalization with overlap
     ethr =  6.89E-08,  avg # of iterations =  2.0

     negative rho (up, down):  4.455E-03 0.000E+00

     total cpu time spent up to now is       55.2 secs

     total energy              =   -4405.74429863 Ry
     estimated scf accuracy    <       0.00127429 Ry

     iteration # 11     ecut=    60.00 Ry     beta= 0.70
     Davidson diagonalization with overlap
     ethr =  6.89E-08,  avg # of iterations =  3.0

     negative rho (up, down):  4.446E-03 0.000E+00

     total cpu time spent up to now is       60.4 secs

     total energy              =   -4405.74448261 Ry
     estimated scf accuracy    <       0.00003904 Ry

     iteration # 12     ecut=    60.00 Ry     beta= 0.70
     Davidson diagonalization with overlap
     ethr =  4.88E-09,  avg # of iterations =  4.0

     negative rho (up, down):  4.451E-03 0.000E+00

     total cpu time spent up to now is       66.4 secs

     total energy              =   -4405.74450846 Ry
     estimated scf accuracy    <       0.00002228 Ry

     iteration # 13     ecut=    60.00 Ry     beta= 0.70
     Davidson diagonalization with overlap
     ethr =  2.78E-09,  avg # of iterations =  2.0

     negative rho (up, down):  4.454E-03 0.000E+00

     total cpu time spent up to now is       70.3 secs

     total energy              =   -4405.74450536 Ry
     estimated scf accuracy    <       0.00000955 Ry

     iteration # 14     ecut=    60.00 Ry     beta= 0.70
     Davidson diagonalization with overlap
     ethr =  1.19E-09,  avg # of iterations =  2.0

     negative rho (up, down):  4.454E-03 0.000E+00

     total cpu time spent up to now is       74.9 secs

     total energy              =   -4405.74450718 Ry
     estimated scf accuracy    <       0.00000025 Ry

     iteration # 15     ecut=    60.00 Ry     beta= 0.70
     Davidson diagonalization with overlap
     ethr =  3.19E-11,  avg # of iterations =  5.0

     negative rho (up, down):  4.454E-03 0.000E+00

     total cpu time spent up to now is       81.2 secs

     total energy              =   -4405.74450735 Ry
     estimated scf accuracy    <       0.00000023 Ry

     iteration # 16     ecut=    60.00 Ry     beta= 0.70
     Davidson diagonalization with overlap
     ethr =  2.84E-11,  avg # of iterations =  3.0

     negative rho (up, down):  4.454E-03 0.000E+00

     total cpu time spent up to now is       85.2 secs

     total energy              =   -4405.74450733 Ry
     estimated scf accuracy    <       0.00000012 Ry

     iteration # 17     ecut=    60.00 Ry     beta= 0.70
     Davidson diagonalization with overlap
     ethr =  1.53E-11,  avg # of iterations =  2.0

     negative rho (up, down):  4.454E-03 0.000E+00

     total cpu time spent up to now is       89.6 secs

     total energy              =   -4405.74450735 Ry
     estimated scf accuracy    <       0.00000001 Ry

     iteration # 18     ecut=    60.00 Ry     beta= 0.70
     Davidson diagonalization with overlap
     ethr =  1.82E-12,  avg # of iterations =  4.0

     negative rho (up, down):  4.454E-03 0.000E+00

     total cpu time spent up to now is       94.9 secs

     total energy              =   -4405.74450735 Ry
     estimated scf accuracy    <          2.8E-10 Ry

     iteration # 19     ecut=    60.00 Ry     beta= 0.70
     Davidson diagonalization with overlap
     ethr =  1.00E-13,  avg # of iterations =  4.0

     negative rho (up, down):  4.454E-03 0.000E+00

     total cpu time spent up to now is      100.3 secs

     total energy              =   -4405.74450735 Ry
     estimated scf accuracy    <          4.2E-10 Ry

     iteration # 20     ecut=    60.00 Ry     beta= 0.70
     Davidson diagonalization with overlap
     ethr =  1.00E-13,  avg # of iterations =  2.0

     negative rho (up, down):  4.454E-03 0.000E+00

     total cpu time spent up to now is      104.0 secs

     End of self-consistent calculation

          k = 0.0000 0.0000 0.0000 (189983 PWs)   bands (ev):

   -25.2065 -25.0722 -24.9374 -24.8945 -24.8587 -24.5876 -24.3691 -24.2890
   -24.2483 -24.2454 -24.2150 -24.1689 -24.1189 -24.1017 -24.0382 -24.0281
   -24.0063 -24.0059 -23.9315 -23.9274 -23.8985 -23.8770 -23.8515 -23.8301
   -23.8207 -23.7803 -23.7693 -23.6977 -23.6931 -23.6595 -23.6365 -23.6216
   -23.5933 -23.5860 -23.5494 -23.5018 -23.4990 -23.4647 -23.4488 -23.4307
   -23.3869 -23.3648 -23.3533 -23.3211 -23.2920 -23.2804 -23.2096 -23.1896
   -23.1771 -23.1657 -23.1604 -23.1465 -23.1341 -23.1083 -23.0583 -23.0484
   -23.0029 -23.0007 -22.9983 -22.9806 -22.9579 -22.9479 -22.9336 -22.9290
   -22.8742 -22.8543 -22.8471 -22.8059 -22.7875 -22.7759 -22.7148 -22.6972
   -22.6499 -22.6010 -22.5632 -22.5524 -22.5507 -22.5417 -22.5130 -22.4639
   -22.4323 -22.4030 -22.3261 -22.2946 -22.2861 -22.2520 -22.2412 -22.1920
   -22.0836 -22.0751 -22.0489 -22.0409 -22.0235 -21.9913 -21.9383 -21.6634
   -21.6453 -21.6127 -21.3185 -21.1295 -13.2224 -13.1803 -13.0783 -13.0641
   -13.0433 -12.7432 -12.6745 -12.4937 -12.4043 -12.3802 -12.3649 -12.3217
   -12.3181 -12.2684 -12.2058 -12.1805 -12.1511 -12.1419 -12.1129 -12.0711
   -12.0610 -12.0341 -12.0255 -12.0042 -12.0020 -11.9604 -11.9145 -11.8896
   -11.8572 -11.8329 -11.7962 -11.7807 -11.7491 -11.7320 -11.7121 -11.6733
   -11.6591 -11.6514 -11.6394 -11.6317 -11.6003 -11.5903 -11.5803 -11.5647
   -11.5411 -11.5236 -11.5074 -11.4851 -11.4734 -11.4527 -11.4271 -11.4248
   -11.4009 -11.3789 -11.3484 -11.3247 -11.3080 -11.2951 -11.2768 -11.2660
   -11.2438 -11.2167 -11.2052 -11.1780 -11.1592 -11.1389 -11.1311 -11.1197
   -11.0875 -11.0485 -10.9956 -10.9824 -10.9126 -10.8961 -10.8743 -10.8580
   -10.8394 -10.8199 -10.8000 -10.7767 -10.7596 -10.7172 -10.7136 -10.6604
   -10.6475 -10.5539 -10.4991 -10.4862 -10.4501 -10.3875 -10.3512 -10.3258
   -10.2748 -10.2590 -10.1508 -10.0505  -9.9363  -9.9281  -9.8897  -9.7468
    -9.4780  -9.4447  -9.4027  -9.2411  -9.2136  -9.0756  -9.0185  -8.9825
    -8.7987  -8.7797  -8.7549  -8.7426  -8.6892  -8.6841  -8.6139  -8.5969
    -8.5518  -8.5417  -8.5047  -8.5001  -8.4558  -8.4486  -8.3665  -8.3490
    -8.3235  -8.3019  -8.2686  -8.2585  -8.2325  -8.1990  -8.1917  -8.1735
    -8.1591  -8.1180  -8.0939  -8.0643  -8.0388  -7.9897  -7.9777  -7.8983
    -7.8577  -7.8336  -7.8197  -7.8059  -7.7843  -7.7628  -7.7576  -7.7067
    -7.6840  -7.6477  -7.6080  -7.5750  -7.5449  -7.5303  -7.4764  -7.4643
    -7.4308  -7.4110  -7.3787  -7.3693  -7.3608  -7.3354  -7.2916  -7.2572
    -7.2371  -7.2140  -7.1786  -7.1629  -7.1351  -7.1114  -7.0389  -7.0209
    -6.9990  -6.9632  -6.9479  -6.9342  -6.9237  -6.9023  -6.8746  -6.8457
    -6.8351  -6.8042  -6.7871  -6.7823  -6.7174  -6.7025  -6.6913  -6.6846
    -6.6761  -6.6469  -6.6076  -6.5532  -6.5264  -6.5052  -6.5026  -6.4961
    -6.4762  -6.4504  -6.4313  -6.4237  -6.4080  -6.3947  -6.3724  -6.3482
    -6.3161  -6.2632  -6.2503  -6.1795  -6.1731  -6.1672  -6.1648  -6.1245
    -6.0875  -6.0634  -6.0432  -6.0290  -6.0126  -5.9914  -5.9780  -5.9695
    -5.9136  -5.8931  -5.8812  -5.8571  -5.8555  -5.8409  -5.8323  -5.8253
    -5.8068  -5.7881  -5.7775  -5.7572  -5.7464  -5.7431  -5.7362  -5.7310
    -5.7189  -5.7122  -5.6989  -5.6459  -5.6334  -5.6184  -5.5932  -5.5803
    -5.5589  -5.5587  -5.5538  -5.5485  -5.5389  -5.5232  -5.5076  -5.5037
    -5.4862  -5.4801  -5.4370  -5.4228  -5.4129  -5.3937  -5.3796  -5.3616
    -5.3571  -5.3350  -5.3201  -5.3048  -5.2530  -5.2460  -5.2131  -5.1949
    -5.1862  -5.1421  -5.0805  -5.0725  -5.0484  -5.0377  -5.0099  -4.9865
    -4.9775  -4.9335  -4.9235  -4.8527  -4.7361  -4.7332  -4.6820  -4.6554
    -4.6238  -4.5778  -4.5642  -4.5630  -4.5321  -4.5110  -4.5072  -4.4706
    -4.4357  -4.4118  -4.3021  -4.0616  -4.0129  -4.0086  -3.6788  -3.5239

     occupation numbers 
     1.0000   1.0000   1.0000   1.0000   1.0000   1.0000   1.0000   1.0000
     1.0000   1.0000   1.0000   1.0000   1.0000   1.0000   1.0000   1.0000
     1.0000   1.0000   1.0000   1.0000   1.0000   1.0000   1.0000   1.0000
     1.0000   1.0000   1.0000   1.0000   1.0000   1.0000   1.0000   1.0000
     1.0000   1.0000   1.0000   1.0000   1.0000   1.0000   1.0000   1.0000
     1.0000   1.0000   1.0000   1.0000   1.0000   1.0000   1.0000   1.0000
     1.0000   1.0000   1.0000   1.0000   1.0000   1.0000   1.0000   1.0000
     1.0000   1.0000   1.0000   1.0000   1.0000   1.0000   1.0000   1.0000
     1.0000   1.0000   1.0000   1.0000   1.0000   1.0000   1.0000   1.0000
     1.0000   1.0000   1.0000   1.0000   1.0000   1.0000   1.0000   1.0000
     1.0000   1.0000   1.0000   1.0000   1.0000   1.0000   1.0000   1.0000
     1.0000   1.0000   1.0000   1.0000   1.0000   1.0000   1.0000   1.0000
     1.0000   1.0000   1.0000   1.0000   1.0000   1.0000   1.0000   1.0000
     1.0000   1.0000   1.0000   1.0000   1.0000   1.0000   1.0000   1.0000
     1.0000   1.0000   1.0000   1.0000   1.0000   1.0000   1.0000   1.0000
     1.0000   1.0000   1.0000   1.0000   1.0000   1.0000   1.0000   1.0000
     1.0000   1.0000   1.0000   1.0000   1.0000   1.0000   1.0000   1.0000
     1.0000   1.0000   1.0000   1.0000   1.0000   1.0000   1.0000   1.0000
     1.0000   1.0000   1.0000   1.0000   1.0000   1.0000   1.0000   1.0000
     1.0000   1.0000   1.0000   1.0000   1.0000   1.0000   1.0000   1.0000
     1.0000   1.0000   1.0000   1.0000   1.0000   1.0000   1.0000   1.0000
     1.0000   1.0000   1.0000   1.0000   1.0000   1.0000   1.0000   1.0000
     1.0000   1.0000   1.0000   1.0000   1.0000   1.0000   1.0000   1.0000
     1.0000   1.0000   1.0000   1.0000   1.0000   1.0000   1.0000   1.0000
     1.0000   1.0000   1.0000   1.0000   1.0000   1.0000   1.0000   1.0000
     1.0000   1.0000   1.0000   1.0000   1.0000   1.0000   1.0000   1.0000
     1.0000   1.0000   1.0000   1.0000   1.0000   1.0000   1.0000   1.0000
     1.0000   1.0000   1.0000   1.0000   1.0000   1.0000   1.0000   1.0000
     1.0000   1.0000   1.0000   1.0000   1.0000   1.0000   1.0000   1.0000
     1.0000   1.0000   1.0000   1.0000   1.0000   1.0000   1.0000   1.0000
     1.0000   1.0000   1.0000   1.0000   1.0000   1.0000   1.0000   1.0000
     1.0000   1.0000   1.0000   1.0000   1.0000   1.0000   1.0000   1.0000
     1.0000   1.0000   1.0000   1.0000   1.0000   1.0000   1.0000   1.0000
     1.0000   1.0000   1.0000   1.0000   1.0000   1.0000   1.0000   1.0000
     1.0000   1.0000   1.0000   1.0000   1.0000   1.0000   1.0000   1.0000
     1.0000   1.0000   1.0000   1.0000   1.0000   1.0000   1.0000   1.0000
     1.0000   1.0000   1.0000   1.0000   1.0000   1.0000   1.0000   1.0000
     1.0000   1.0000   1.0000   1.0000   1.0000   1.0000   1.0000   1.0000
     1.0000   1.0000   1.0000   1.0000   1.0000   1.0000   1.0000   1.0000
     1.0000   1.0000   1.0000   1.0000   1.0000   1.0000   1.0000   1.0000
     1.0000   1.0000   1.0000   1.0000   1.0000   1.0000   1.0000   1.0000
     1.0000   1.0000   1.0000   1.0000   1.0000   1.0000   1.0000   1.0000
     1.0000   1.0000   1.0000   1.0000   1.0000   1.0000   1.0000   1.0000
     1.0000   1.0000   1.0000   1.0000   1.0000   1.0000   1.0000   1.0000
     1.0000   1.0000   1.0000   1.0000   1.0000   1.0000   1.0000   1.0000
     1.0000   1.0000   1.0000   1.0000   1.0000   1.0000   1.0000   1.0000
     1.0000   1.0000   1.0000   1.0000   1.0000   1.0000   1.0000   1.0000
     1.0000   1.0000   1.0000   1.0000   1.0000   1.0000   1.0000   1.0000
     1.0000   1.0000   1.0000   1.0000   1.0000   1.0000   1.0000   1.0000
     1.0000   1.0000   1.0000   1.0000   1.0000   1.0000   1.0000   1.0000

     highest occupied level (ev):    -3.5239

!    total energy              =   -4405.74450735 Ry
     estimated scf accuracy    <          9.3E-11 Ry

     The total energy is the sum of the following terms:
     one-electron contribution =  -13695.06867831 Ry
     hartree contribution      =    7055.54894480 Ry
     xc contribution           =    -883.42920737 Ry
     ewald contribution        =    4067.71096706 Ry
     one-center paw contrib.   =    -950.50653352 Ry
      -> PAW hartree energy AE =      84.68254901 Ry
      -> PAW hartree energy PS =     -84.27994269 Ry
      -> PAW xc energy AE      =     -50.98214352 Ry
      -> PAW xc energy PS      =      22.06244878 Ry
      -> total E_H with PAW    =    7055.95155112 Ry
      -> total E_XC with PAW   =    -912.34890211 Ry

     convergence has been achieved in  20 iterations

     negative rho (up, down):  4.454E-03 0.000E+00

     Forces acting on atoms (cartesian axes, Ry/au):

     atom    1 type  2   force =     0.02653580    0.00974964   -0.00026083
     atom    2 type  1   force =    -0.05796297   -0.01168526   -0.00901061
     atom    3 type  1   force =     0.03334412    0.00309237    0.01557955
     atom    4 type  2   force =    -0.00080978   -0.02180282   -0.00149650
     atom    5 type  1   force =    -0.00722854    0.04595734   -0.03303486
     atom    6 type  1   force =     0.00176951   -0.01527422    0.04031987
     atom    7 type  2   force =    -0.00060672    0.01515964    0.02345844
     atom    8 type  1   force =    -0.01979622   -0.02231617   -0.04581203
     atom    9 type  1   force =     0.00961387    0.02493372    0.03456032
     atom   10 type  2   force =     0.01912337    0.00822553    0.00771037
     atom   11 type  1   force =     0.03342229    0.03659697   -0.01498379
     atom   12 type  1   force =    -0.05469424   -0.02466811    0.01412847
     atom   13 type  2   force =     0.00631828    0.01379183    0.02782503
     atom   14 type  1   force =    -0.00470209   -0.03983105   -0.04701360
     atom   15 type  1   force =    -0.01058590    0.02455834    0.03638029
     atom   16 type  2   force =     0.01949810   -0.01988909    0.02762728
     atom   17 type  1   force =    -0.04309275   -0.00392223   -0.01642277
     atom   18 type  1   force =     0.03487896    0.02588817    0.00372331
     atom   19 type  2   force =     0.01242022   -0.06281699   -0.02064119
     atom   20 type  1   force =     0.00640419    0.01149245    0.00646056
     atom   21 type  1   force =    -0.01012837    0.05323092    0.01478302
     atom   22 type  2   force =    -0.00669596    0.00148342   -0.04236905
     atom   23 type  1   force =    -0.01991339    0.00516024    0.02140309
     atom   24 type  1   force =     0.00993068    0.00451447    0.01374770
     atom   25 type  2   force =    -0.01489534    0.02320429    0.01071808
     atom   26 type  1   force =     0.01218045    0.02622719    0.01438169
     atom   27 type  1   force =     0.01196435   -0.05198012    0.00064566
     atom   28 type  2   force =    -0.00675932   -0.01779893    0.00815087
     atom   29 type  1   force =    -0.00134094    0.02072940   -0.03252023
     atom   30 type  1   force =    -0.01557677   -0.03349396    0.01731794
     atom   31 type  2   force =    -0.00173280   -0.01058021    0.02305359
     atom   32 type  1   force =    -0.01285310   -0.00224405   -0.06118805
     atom   33 type  1   force =     0.00786449    0.02068675    0.04289557
     atom   34 type  2   force =     0.00285375    0.00539656   -0.03723013
     atom   35 type  1   force =     0.04160073    0.00981348   -0.00110437
     atom   36 type  1   force =    -0.04571708   -0.00392739    0.02435348
     atom   37 type  2   force =     0.00828920   -0.00010924   -0.00240603
     atom   38 type  1   force =    -0.03156521    0.00778930   -0.01308424
     atom   39 type  1   force =     0.02605976    0.00011454    0.00559852
     atom   40 type  2   force =    -0.01279021   -0.02248591   -0.00562398
     atom   41 type  1   force =     0.00090631    0.03305595    0.00006929
     atom   42 type  1   force =     0.02267529   -0.03005546   -0.01243344
     atom   43 type  2   force =    -0.00826685    0.01018075    0.00296099
     atom   44 type  1   force =    -0.01978641    0.00115044   -0.01128099
     atom   45 type  1   force =     0.03606938   -0.02337612    0.02194986
     atom   46 type  2   force =     0.02479756    0.00698592    0.01319954
     atom   47 type  1   force =    -0.02028048   -0.02939726    0.01625254
     atom   48 type  1   force =     0.00994057    0.01761901   -0.02369789
     atom   49 type  2   force =    -0.02115945    0.02550605    0.00992779
     atom   50 type  1   force =     0.03707844   -0.01203889   -0.01708684
     atom   51 type  1   force =    -0.00390584   -0.00734217    0.00526876
     atom   52 type  2   force =     0.02722210    0.02382194    0.00991634
     atom   53 type  1   force =    -0.00543517    0.01793413   -0.04424502
     atom   54 type  1   force =    -0.03201522   -0.04176053    0.03184820
     atom   55 type  2   force =    -0.01534562    0.02283908    0.02868803
     atom   56 type  1   force =     0.01190213   -0.01926934   -0.03804507
     atom   57 type  1   force =    -0.01007867   -0.00616416    0.01373646
     atom   58 type  2   force =     0.00304822    0.00740545   -0.00751593
     atom   59 type  1   force =    -0.01139274   -0.00105308   -0.03023037
     atom   60 type  1   force =     0.01094769    0.00673907    0.03308583
     atom   61 type  2   force =     0.01936215   -0.01088474   -0.03079650
     atom   62 type  1   force =     0.03012238    0.00298014   -0.00073464
     atom   63 type  1   force =    -0.03856149    0.00374854    0.04138162
     atom   64 type  2   force =    -0.00174382   -0.00546617   -0.02646443
     atom   65 type  1   force =     0.02726423   -0.00331976   -0.02404742
     atom   66 type  1   force =    -0.02535553    0.00081845    0.05464032
     atom   67 type  2   force =    -0.01053736   -0.00030190    0.02081283
     atom   68 type  1   force =     0.02505791   -0.00745458    0.00693367
     atom   69 type  1   force =    -0.02198545    0.00225636   -0.00028833
     atom   70 type  2   force =     0.02148233    0.00841793   -0.04262861
     atom   71 type  1   force =     0.01326379    0.01267845    0.05597592
     atom   72 type  1   force =    -0.02784901   -0.02056713   -0.01230219
     atom   73 type  2   force =    -0.00764513   -0.00412256    0.02928251
     atom   74 type  1   force =    -0.02611340   -0.00016290   -0.02064854
     atom   75 type  1   force =     0.02250207   -0.00311013    0.01257321
     atom   76 type  2   force =     0.02758130    0.00564150   -0.00944436
     atom   77 type  1   force =     0.03931857    0.00588147   -0.00628867
     atom   78 type  1   force =    -0.05502465   -0.01881423    0.01033930
     atom   79 type  2   force =     0.00850955   -0.00685759    0.01219776
     atom   80 type  1   force =    -0.03668782   -0.00637549    0.02791408
     atom   81 type  1   force =     0.03666694    0.01055825   -0.02309834
     atom   82 type  2   force =    -0.01456023   -0.00832941   -0.01398787
     atom   83 type  1   force =     0.00237678   -0.01934934   -0.04009727
     atom   84 type  1   force =     0.00031064    0.03817108    0.04561528
     atom   85 type  2   force =    -0.01427777   -0.01891250   -0.01348372
     atom   86 type  1   force =    -0.00425443    0.00332867   -0.01336860
     atom   87 type  1   force =    -0.00257056    0.01473961    0.01800296
     atom   88 type  2   force =     0.02533989   -0.01597272    0.03615363
     atom   89 type  1   force =     0.01175173    0.01027307    0.01976967
     atom   90 type  1   force =    -0.02890907    0.01367358   -0.05013597
     atom   91 type  2   force =     0.00754831    0.02093049    0.01856934
     atom   92 type  1   force =     0.01283973   -0.02044066    0.01611734
     atom   93 type  1   force =    -0.02280988   -0.01863208   -0.02221774
     atom   94 type  2   force =    -0.01385207    0.00847300   -0.01066363
     atom   95 type  1   force =     0.02792306   -0.00282257    0.03569812
     atom   96 type  1   force =    -0.01478151   -0.00575013   -0.03880424
     atom   97 type  2   force =    -0.00469494   -0.00740804   -0.02010788
     atom   98 type  1   force =     0.01885643   -0.02654215   -0.00034260
     atom   99 type  1   force =    -0.02197124    0.03182097    0.01307341
     atom  100 type  2   force =     0.02769595    0.01347885    0.00565159
     atom  101 type  1   force =    -0.00948182   -0.01262834   -0.01385274
     atom  102 type  1   force =    -0.03702458    0.00938545    0.00038232
     atom  103 type  2   force =    -0.04018102   -0.02266613   -0.02014769
     atom  104 type  1   force =     0.05473693    0.00829989   -0.01645563
     atom  105 type  1   force =    -0.02034396    0.00808949    0.00637684
     atom  106 type  2   force =    -0.02435031   -0.01697277    0.01642108
     atom  107 type  1   force =     0.04360317    0.02670143   -0.00206340
     atom  108 type  1   force =    -0.01169557   -0.01589141   -0.03651013
     atom  109 type  2   force =     0.00865513   -0.01283625   -0.01705899
     atom  110 type  1   force =     0.02332136    0.01634963    0.03954142
     atom  111 type  1   force =    -0.03173577   -0.00161121   -0.01721894
     atom  112 type  2   force =     0.01768697   -0.01657750    0.01911201
     atom  113 type  1   force =     0.01538310   -0.02010095    0.01821052
     atom  114 type  1   force =    -0.04379190    0.02719316   -0.00432252
     atom  115 type  2   force =     0.00245020   -0.00946411   -0.01393208
     atom  116 type  1   force =    -0.00634370    0.00307663    0.01342805
     atom  117 type  1   force =    -0.00515506    0.00358863   -0.00497218
     atom  118 type  2   force =    -0.01043850    0.03866074   -0.00410561
     atom  119 type  1   force =     0.02098875   -0.02867854   -0.04461634
     atom  120 type  1   force =    -0.01247296   -0.00774258    0.05380324
     atom  121 type  2   force =    -0.01958365    0.00598652   -0.01950898
     atom  122 type  1   force =     0.00331627    0.01703307   -0.00966384
     atom  123 type  1   force =     0.02764653   -0.01310689    0.01291975
     atom  124 type  2   force =     0.02347206    0.03561082    0.04264442
     atom  125 type  1   force =    -0.03701772   -0.02930663   -0.02941349
     atom  126 type  1   force =     0.02666600    0.01429060   -0.01148525
     atom  127 type  2   force =     0.00505919   -0.01873364   -0.00928088
     atom  128 type  1   force =    -0.03832610   -0.02468463   -0.00002901
     atom  129 type  1   force =     0.02389389    0.05093929    0.01197647
     atom  130 type  2   force =     0.01112122    0.02941753   -0.00675725
     atom  131 type  1   force =     0.01650784    0.02010097   -0.02604086
     atom  132 type  1   force =    -0.01852601   -0.01629153    0.03443788
     atom  133 type  2   force =     0.01420231   -0.01381177   -0.00009219
     atom  134 type  1   force =     0.00551313    0.01349592    0.02552316
     atom  135 type  1   force =    -0.01867068   -0.01333682   -0.01287474
     atom  136 type  2   force =    -0.01203120    0.03168499    0.01091232
     atom  137 type  1   force =     0.01151732   -0.03205329   -0.00351879
     atom  138 type  1   force =     0.00941184    0.00526459    0.01656998
     atom  139 type  2   force =    -0.00362244    0.03254520   -0.02342012
     atom  140 type  1   force =    -0.01851237    0.02923208    0.02277855
     atom  141 type  1   force =     0.02263127   -0.04903304   -0.02091504
     atom  142 type  2   force =     0.00315698    0.01275262   -0.00894729
     atom  143 type  1   force =    -0.01216104    0.02946265   -0.01533061
     atom  144 type  1   force =    -0.00535927   -0.03546473    0.03735388
[...]
     atom   92 type  1   force =    -0.00000013    0.00000025   -0.00000003
     atom   93 type  1   force =     0.00000021    0.00000019    0.00000015
     atom   94 type  2   force =    -0.00000081   -0.00000001    0.00000051
     atom   95 type  1   force =    -0.00000023   -0.00000005   -0.00000006
     atom   96 type  1   force =    -0.00000008    0.00000001    0.00000023
     atom   97 type  2   force =    -0.00000025   -0.00000070   -0.00000049
     atom   98 type  1   force =    -0.00000019    0.00000002   -0.00000012
     atom   99 type  1   force =     0.00000004   -0.00000025   -0.00000008
     atom  100 type  2   force =     0.00000015    0.00000039   -0.00000033
     atom  101 type  1   force =     0.00000002    0.00000008   -0.00000005
     atom  102 type  1   force =     0.00000013   -0.00000003   -0.00000007
     atom  103 type  2   force =    -0.00000072   -0.00000039   -0.00000011
     atom  104 type  1   force =    -0.00000022   -0.00000006   -0.00000001
     atom  105 type  1   force =     0.00000002   -0.00000010   -0.00000014
     atom  106 type  2   force =    -0.00000080   -0.00000029    0.00000067
     atom  107 type  1   force =    -0.00000020   -0.00000012    0.00000009
     atom  108 type  1   force =    -0.00000003   -0.00000001    0.00000017
     atom  109 type  2   force =     0.00000042   -0.00000045   -0.00000071
     atom  110 type  1   force =     0.00000001   -0.00000012   -0.00000022
     atom  111 type  1   force =     0.00000018   -0.00000004    0.00000001
     atom  112 type  2   force =     0.00000058    0.00000017    0.00000078
     atom  113 type  1   force =     0.00000002    0.00000006    0.00000009
     atom  114 type  1   force =     0.00000014   -0.00000006    0.00000010
     atom  115 type  2   force =     0.00000075   -0.00000013   -0.00000004
     atom  116 type  1   force =     0.00000020   -0.00000004   -0.00000007
     atom  117 type  1   force =     0.00000006    0.00000004    0.00000014
     atom  118 type  2   force =    -0.00000010    0.00000099   -0.00000018
     atom  119 type  1   force =    -0.00000005    0.00000026    0.00000016
     atom  120 type  1   force =     0.00000008    0.00000017   -0.00000023
     atom  121 type  2   force =    -0.00000056   -0.00000010    0.00000003
     atom  122 type  1   force =    -0.00000005   -0.00000009    0.00000017
     atom  123 type  1   force =    -0.00000019    0.00000005   -0.00000006
     atom  124 type  2   force =     0.00000003    0.00000030    0.00000143
     atom  125 type  1   force =     0.00000017    0.00000016    0.00000028
     atom  126 type  1   force =    -0.00000018   -0.00000006    0.00000027
     atom  127 type  2   force =     0.00000053   -0.00000046   -0.00000012
     atom  128 type  1   force =     0.00000027    0.00000004   -0.00000002
     atom  129 type  1   force =    -0.00000005   -0.00000031   -0.00000009
     atom  130 type  2   force =     0.00000002    0.00000070    0.00000026
     atom  131 type  1   force =    -0.00000003    0.00000009    0.00000019
     atom  132 type  1   force =     0.00000008    0.00000023   -0.00000011
     atom  133 type  2   force =     0.00000029   -0.00000019   -0.00000016
     atom  134 type  1   force =     0.00000004   -0.00000005   -0.00000006
     atom  135 type  1   force =     0.00000006    0.00000000    0.00000002
     atom  136 type  2   force =    -0.00000026    0.00000046   -0.00000009
     atom  137 type  1   force =    -0.00000008    0.00000017   -0.00000000
     atom  138 type  1   force =    -0.00000008   -0.00000005   -0.00000010
     atom  139 type  2   force =    -0.00000018    0.00000075   -0.00000052
     atom  140 type  1   force =     0.00000003    0.00000006   -0.00000015
     atom  141 type  1   force =    -0.00000010    0.00000025    0.00000001
     atom  142 type  2   force =    -0.00000026    0.00000009    0.00000013
     atom  143 type  1   force =    -0.00000003   -0.00000006    0.00000012
     atom  144 type  1   force =    -0.00000003    0.00000011   -0.00000002
     atom  145 type  2   force =     0.00000077    0.00000063    0.00000021
     atom  146 type  1   force =     0.00000022    0.00000020   -0.00000010
     atom  147 type  1   force =     0.00000009   -0.00000000    0.00000028
     atom  148 type  2   force =    -0.00000053    0.00000003    0.00000032
     atom  149 type  1   force =    -0.00000020   -0.00000006    0.00000006
     atom  150 type  1   force =    -0.00000001    0.00000015    0.00000013
     atom  151 type  2   force =     0.00000077    0.00000038    0.00000026
     atom  152 type  1   force =     0.00000007    0.00000013    0.00000010
     atom  153 type  1   force =     0.00000021    0.00000001   -0.00000006
     atom  154 type  2   force =    -0.00000106   -0.00000025   -0.00000050
     atom  155 type  1   force =    -0.00000023   -0.00000009   -0.00000010
     atom  156 type  1   force =    -0.00000004    0.00000011   -0.00000018
     atom  157 type  2   force =    -0.00000019    0.00000031   -0.00000075
     atom  158 type  1   force =    -0.00000014   -0.00000010   -0.00000007
     atom  159 type  1   force =     0.00000003    0.00000019   -0.00000023
     atom  160 type  2   force =    -0.00000004    0.00000005   -0.00000007
     atom  161 type  1   force =     0.00000000   -0.00000004    0.00000003
     atom  162 type  1   force =    -0.00000005   -0.00000000   -0.00000001
     atom  163 type  2   force =    -0.00000044   -0.00000037    0.00000002
     atom  164 type  1   force =    -0.00000001   -0.00000009   -0.00000014
     atom  165 type  1   force =    -0.00000011   -0.00000007    0.00000013
     atom  166 type  2   force =    -0.00000002    0.00000008   -0.00000029
     atom  167 type  1   force =    -0.00000009    0.00000008   -0.00000015
     atom  168 type  1   force =     0.00000011    0.00000003    0.00000002
     atom  169 type  2   force =    -0.00000046    0.00000033   -0.00000032
     atom  170 type  1   force =    -0.00000003   -0.00000004   -0.00000020
     atom  171 type  1   force =    -0.00000009    0.00000008   -0.00000003
     atom  172 type  2   force =     0.00000040   -0.00000011    0.00000068
     atom  173 type  1   force =     0.00000002   -0.00000006    0.00000022
     atom  174 type  1   force =     0.00000008   -0.00000002    0.00000002
     atom  175 type  2   force =    -0.00000096    0.00000001    0.00000041
     atom  176 type  1   force =    -0.00000013    0.00000005   -0.00000015
     atom  177 type  1   force =    -0.00000032   -0.00000001    0.00000022
     atom  178 type  2   force =    -0.00000004    0.00000019   -0.00000049
     atom  179 type  1   force =     0.00000000   -0.00000013   -0.00000026
     atom  180 type  1   force =    -0.00000013    0.00000024   -0.00000009
     atom  181 type  2   force =    -0.00000018   -0.00000068    0.00000069
     atom  182 type  1   force =     0.00000005   -0.00000002    0.00000023
     atom  183 type  1   force =    -0.00000012   -0.00000021    0.00000001
     atom  184 type  2   force =    -0.00000014    0.00000010    0.00000004
     atom  185 type  1   force =    -0.00000002    0.00000005   -0.00000009
     atom  186 type  1   force =    -0.00000010    0.00000001    0.00000009
     atom  187 type  2   force =     0.00000016   -0.00000068    0.00000059
     atom  188 type  1   force =     0.00000001   -0.00000020    0.00000020
     atom  189 type  1   force =     0.00000002   -0.00000007   -0.00000006
     atom  190 type  2   force =     0.00000032    0.00000094   -0.00000010
     atom  191 type  1   force =     0.00000022    0.00000022    0.00000000
     atom  192 type  1   force =    -0.00000019    0.00000014   -0.00000007
     atom  193 type  2   force =    -0.00000006   -0.00000021   -0.00000089
     atom  194 type  1   force =     0.00000012   -0.00000024   -0.00000010
     atom  195 type  1   force =    -0.00000004    0.00000008   -0.00000028
     atom  196 type  2   force =     0.00000054    0.00000074    0.00000004
     atom  197 type  1   force =     0.00000027   -0.00000005    0.00000001
     atom  198 type  1   force =     0.00000005    0.00000032    0.00000001
     atom  199 type  2   force =     0.00000035    0.00000088   -0.00000008
     atom  200 type  1   force =    -0.00000002    0.00000028   -0.00000023
     atom  201 type  1   force =     0.00000027    0.00000015    0.00000015
     atom  202 type  2   force =    -0.00000087   -0.00000038    0.00000013
     atom  203 type  1   force =    -0.00000014   -0.00000006   -0.00000006
     atom  204 type  1   force =    -0.00000009   -0.00000001    0.00000010
     atom  205 type  2   force =    -0.00000084   -0.00000044    0.00000045
     atom  206 type  1   force =    -0.00000027   -0.00000001    0.00000014
     atom  207 type  1   force =    -0.00000005   -0.00000016    0.00000006
     atom  208 type  2   force =     0.00000034   -0.00000055    0.00000069
     atom  209 type  1   force =     0.00000007   -0.00000019   -0.00000001
     atom  210 type  1   force =     0.00000006   -0.00000005    0.00000019
     atom  211 type  2   force =     0.00000108   -0.00000027   -0.00000020
     atom  212 type  1   force =     0.00000025    0.00000008    0.00000008
     atom  213 type  1   force =     0.00000019   -0.00000020   -0.00000014
     atom  214 type  2   force =    -0.00000014    0.00000036    0.00000050
     atom  215 type  1   force =     0.00000000   -0.00000003    0.00000015
     atom  216 type  1   force =    -0.00000004    0.00000015    0.00000005
     atom  217 type  2   force =    -0.00000027    0.00000033   -0.00000054
     atom  218 type  1   force =    -0.00000025   -0.00000003   -0.00000010
     atom  219 type  1   force =     0.00000007    0.00000009   -0.00000018
     atom  220 type  2   force =     0.00000066   -0.00000022    0.00000003
     atom  221 type  1   force =     0.00000022    0.00000010    0.00000023
     atom  222 type  1   force =     0.00000016   -0.00000015   -0.00000016
     atom  223 type  2   force =     0.00000010    0.00000060    0.00000032
     atom  224 type  1   force =     0.00000013   -0.00000003    0.00000007
     atom  225 type  1   force =    -0.00000003    0.00000022    0.00000004
     atom  226 type  2   force =     0.00000067   -0.00000025    0.00000013
     atom  227 type  1   force =     0.00000011    0.00000011   -0.00000013
     atom  228 type  1   force =     0.00000013   -0.00000010    0.00000008
     atom  229 type  2   force =     0.00000020    0.00000002   -0.00000056
     atom  230 type  1   force =     0.00000002    0.00000022   -0.00000000
     atom  231 type  1   force =     0.00000010   -0.00000006   -0.00000025
     atom  232 type  2   force =     0.00000033    0.00000097   -0.00000009
     atom  233 type  1   force =    -0.00000007    0.00000019   -0.00000021
     atom  234 type  1   force =     0.00000019    0.00000023    0.00000018
     atom  235 type  2   force =    -0.00000002   -0.00000003    0.00000028
     atom  236 type  1   force =    -0.00000011    0.00000010    0.00000026
     atom  237 type  1   force =    -0.00000003   -0.00000025   -0.00000004
     atom  238 type  2   force =     0.00000028    0.00000079   -0.00000022
     atom  239 type  1   force =     0.00000009    0.00000008    0.00000001
     atom  240 type  1   force =    -0.00000005    0.00000012   -0.00000004
     atom  241 type  2   force =     0.00000021    0.00000003   -0.00000001
     atom  242 type  1   force =     0.00000003   -0.00000002    0.00000020
     atom  243 type  1   force =     0.00000019   -0.00000003   -0.00000009
     atom  244 type  2   force =     0.00000011    0.00000020    0.00000024
     atom  245 type  1   force =    -0.00000000    0.00000013    0.00000018
     atom  246 type  1   force =     0.00000020   -0.00000005   -0.00000001
     atom  247 type  2   force =     0.00000075   -0.00000016   -0.00000049
     atom  248 type  1   force =    -0.00000002   -0.00000005   -0.00000011
     atom  249 type  1   force =     0.00000024   -0.00000002   -0.00000005
     atom  250 type  2   force =    -0.00000052    0.00000005   -0.00000046
     atom  251 type  1   force =    -0.00000012    0.00000015   -0.00000018
     atom  252 type  1   force =    -0.00000008   -0.00000012   -0.00000007
     atom  253 type  2   force =     0.00000039    0.00000020    0.00000053
     atom  254 type  1   force =     0.00000007    0.00000006    0.00000024
     atom  255 type  1   force =     0.00000008   -0.00000001   -0.00000008
     atom  256 type  2   force =    -0.00000021    0.00000032    0.00000068
     atom  257 type  1   force =     0.00000005    0.00000018    0.00000014
     atom  258 type  1   force =    -0.00000015   -0.00000007    0.00000014
     atom  259 type  2   force =     0.00000122    0.00000008    0.00000009
     atom  260 type  1   force =     0.00000007    0.00000020    0.00000005
     atom  261 type  1   force =     0.00000032   -0.00000008   -0.00000001
     atom  262 type  2   force =    -0.00000054    0.00000027   -0.00000075
     atom  263 type  1   force =     0.00000013    0.00000002   -0.00000019
     atom  264 type  1   force =    -0.00000023    0.00000004   -0.00000010
     atom  265 type  2   force =    -0.00000023    0.00000047   -0.00000068
     atom  266 type  1   force =    -0.00000011    0.00000011   -0.00000018
     atom  267 type  1   force =     0.00000008    0.00000012    0.00000004
     atom  268 type  2   force =     0.00000057   -0.00000099   -0.00000005
     atom  269 type  1   force =     0.00000020    0.00000007    0.00000010
     atom  270 type  1   force =     0.00000011   -0.00000025   -0.00000008
     atom  271 type  2   force =    -0.00000009   -0.00000018   -0.00000075
     atom  272 type  1   force =     0.00000006    0.00000004   -0.00000018
     atom  273 type  1   force =    -0.00000009   -0.00000017   -0.00000006
     atom  274 type  2   force =     0.00000047   -0.00000072   -0.00000002
     atom  275 type  1   force =     0.00000022   -0.00000026   -0.00000001
     atom  276 type  1   force =    -0.00000017   -0.00000009    0.00000005
     atom  277 type  2   force =    -0.00000013   -0.00000039    0.00000077
     atom  278 type  1   force =    -0.00000018   -0.00000013    0.00000009
     atom  279 type  1   force =     0.00000021   -0.00000006    0.00000028
     atom  280 type  2   force =     0.00000047    0.00000021   -0.00000053
     atom  281 type  1   force =     0.00000013   -0.00000012   -0.00000017
     atom  282 type  1   force =     0.00000009    0.00000024   -0.00000004
     atom  283 type  2   force =     0.00000028    0.00000017    0.00000037
     atom  284 type  1   force =     0.00000008    0.00000001   -0.00000003
     atom  285 type  1   force =     0.00000005    0.00000004    0.00000011
     atom  286 type  2   force =    -0.00000057   -0.00000035    0.00000043
     atom  287 type  1   force =    -0.00000033   -0.00000002   -0.00000005
     atom  288 type  1   force =     0.00000004   -0.00000008    0.00000025
     atom  289 type  2   force =     0.00000056    0.00000043   -0.00000026
     atom  290 type  1   force =     0.00000004    0.00000016   -0.00000005
     atom  291 type  1   force =     0.00000013   -0.00000015   -0.00000006
     atom  292 type  2   force =    -0.00000041   -0.00000013    0.00000054
     atom  293 type  1   force =    -0.00000005   -0.00000006    0.00000020
     atom  294 type  1   force =    -0.00000014    0.00000005   -0.00000009
     atom  295 type  2   force =    -0.00000044   -0.00000038   -0.00000006
     atom  296 type  1   force =    -0.00000012   -0.00000014   -0.00000014
     atom  297 type  1   force =    -0.00000008    0.00000002    0.00000009
     atom  298 type  2   force =    -0.00000011   -0.00000039    0.00000098
     atom  299 type  1   force =     0.00000009    0.00000001    0.00000028
     atom  300 type  1   force =    -0.00000014   -0.00000018    0.00000017

     Total force =     0.728634     Total SCF correction =     0.000009

     Writing output data file ./009.save/
 
     init_run     :     11.62s CPU      4.26s WALL (       1 calls)
     electrons    :    372.41s CPU     99.24s WALL (       1 calls)
     forces       :      6.18s CPU      1.81s WALL (       1 calls)

     Called by init_run:
     wfcinit      :      6.71s CPU      1.80s WALL (       1 calls)
     wfcinit:atom :      0.09s CPU      0.03s WALL (       1 calls)
     wfcinit:wfcr :      6.16s CPU      1.64s WALL (       1 calls)
     potinit      :      1.14s CPU      0.32s WALL (       1 calls)
     hinit0       :      0.99s CPU      0.26s WALL (       1 calls)

     Called by electrons:
     c_bands      :    287.61s CPU     74.32s WALL (      20 calls)
     sum_band     :     51.74s CPU     14.95s WALL (      20 calls)
     v_of_rho     :     11.93s CPU      3.14s WALL (      21 calls)
     v_h          :      1.22s CPU      0.32s WALL (      21 calls)
     v_xc         :     11.18s CPU      2.95s WALL (      22 calls)
     newd         :     12.64s CPU      4.61s WALL (      21 calls)
     PAW_pot      :      4.03s CPU      1.03s WALL (      21 calls)
     mix_rho      :      3.07s CPU      0.80s WALL (      20 calls)

     Called by c_bands:
     init_us_2    :      1.83s CPU      0.49s WALL (      41 calls)
     regterg      :    283.92s CPU     73.38s WALL (      20 calls)

     Called by sum_band:
     sum_band:wei :      0.00s CPU      0.00s WALL (      20 calls)
     sum_band:loo :     40.18s CPU     10.38s WALL (      20 calls)
     sum_band:buf :      0.00s CPU      0.00s WALL (      20 calls)
     sum_band:ini :      0.89s CPU      0.23s WALL (      20 calls)
     sum_band:cal :      5.32s CPU      1.35s WALL (      20 calls)
     sum_band:bec :      0.13s CPU      0.03s WALL (      20 calls)
     addusdens    :      9.87s CPU      4.12s WALL (      20 calls)
     addusd:skk   :      5.13s CPU      2.54s WALL (      40 calls)
     addusd:dgemm :      2.86s CPU      1.03s WALL (      40 calls)
     addusd:qvan2 :      1.24s CPU      0.32s WALL (      40 calls)

     Called by *egterg:
     rdiaghg      :     28.51s CPU      7.27s WALL (      80 calls)
     regterg:over :     13.52s CPU      3.45s WALL (      60 calls)
     regterg:upda :      8.34s CPU      2.12s WALL (      60 calls)
     regterg:last :     20.59s CPU      5.20s WALL (      49 calls)
     rdiaghg:chol :      0.82s CPU      0.21s WALL (      80 calls)
     rdiaghg:inve :      1.16s CPU      0.30s WALL (      80 calls)
     rdiaghg:para :      1.79s CPU      0.47s WALL (     160 calls)
     h_psi        :    197.10s CPU     51.14s WALL (      81 calls)
     s_psi        :     13.36s CPU      3.43s WALL (      81 calls)
     g_psi        :      0.43s CPU      0.12s WALL (      60 calls)

     Called by h_psi:
     h_psi:calbec :     14.50s CPU      3.73s WALL (      81 calls)
     vloc_psi     :    167.62s CPU     43.61s WALL (      81 calls)
     vloc_psi:tg_ :      3.08s CPU      0.79s WALL (      81 calls)
     add_vuspsi   :     14.19s CPU      3.60s WALL (      81 calls)

     General routines
     calbec       :     20.77s CPU      5.33s WALL (     105 calls)
     fft          :     10.91s CPU      2.89s WALL (     238 calls)
     ffts         :      0.72s CPU      0.20s WALL (      41 calls)
     fftw         :    155.63s CPU     40.63s WALL (    3444 calls)
     interpolate  :      1.55s CPU      0.41s WALL (      21 calls)
 
     Parallel routines
     fft_scatt_xy :     29.09s CPU      7.47s WALL (    3723 calls)
     fft_scatt_yz :     66.66s CPU     17.34s WALL (    3723 calls)
     fft_scatt_tg :     12.54s CPU      3.90s WALL (    3444 calls)

     PAW routines
     PAW_pot      :      4.03s CPU      1.03s WALL (      21 calls)
 
     PWSCF        :   6m32.59s CPU   1m47.94s WALL

 
   This run was terminated on:  12:29:57  26Jun2021            

=------------------------------------------------------------------------------=
   JOB DONE.
=------------------------------------------------------------------------------=
