
     Program PWSCF v.6.6 starts on 25Jun2021 at 23:27:30 

     This program is part of the open-source Quantum ESPRESSO suite
     for quantum simulation of materials; please cite
         "P. Giannozzi et al., J. Phys.:Condens. Matter 21 395502 (2009);
         "P. Giannozzi et al., J. Phys.:Condens. Matter 29 465901 (2017);
          URL http://www.quantum-espresso.org", 
     in publications or presentations arising from this work. More details at
     http://www.quantum-espresso.org/quote

     Parallel version (MPI & OpenMP), running on      96 processor cores
     Number of MPI processes:                48
     Threads/MPI process:                     2

     MPI processes distributed on     2 nodes
     R & G space division:  proc/nbgrp/npool/nimage =      48
     wavefunctions fft division:  Y-proc x Z-proc =       4     12
     wavefunctions fft division:  task group distribution
                                  #TG    x Z-proc =       4     12
     Fft bands division:     nmany     =       1
     Reading input from _007.in

     Current dimensions of program PWSCF are:
     Max number of different atomic species (ntypx) = 10
     Max number of k-points (npk) =  40000
     Max angular momentum in pseudopotentials (lmaxx) =  3
     file O.pbe-n-kjpaw_psl.0.1.UPF: wavefunction(s)  2P renormalized

     gamma-point specific algorithms are used

     Subspace diagonalization in iterative solution of the eigenvalue problem:
     a serial algorithm will be used

 
     Parallelization info
     --------------------
     sticks:   dense  smooth     PW     G-vecs:    dense   smooth      PW
     Min         702     352     86                97562    34492    4294
     Max         710     354     90                97680    34548    4324
     Sum       33849   16929   4229              4686239  1656739  206917
 


     bravais-lattice index     =            1
     lattice parameter (alat)  =      29.7726  a.u.
     unit-cell volume          =   26390.7555 (a.u.)^3
     number of atoms/cell      =          141
     number of atomic types    =            2
     number of electrons       =       376.00
     number of Kohn-Sham states=          188
     kinetic-energy cutoff     =      60.0000  Ry
     charge density cutoff     =     480.0000  Ry
     convergence threshold     =      1.0E-10
     mixing beta               =       0.7000
     number of iterations used =            8  plain     mixing
     Exchange-correlation= SLA PW PBX PBC
                           (   1   4   3   4   0   0   0)

     celldm(1)=  29.772635  celldm(2)=   0.000000  celldm(3)=   0.000000
     celldm(4)=   0.000000  celldm(5)=   0.000000  celldm(6)=   0.000000

     crystal axes: (cart. coord. in units of alat)
               a(1) = (   1.000000   0.000000   0.000000 )  
               a(2) = (   0.000000   1.000000   0.000000 )  
               a(3) = (   0.000000   0.000000   1.000000 )  

     reciprocal axes: (cart. coord. in units 2 pi/alat)
               b(1) = (  1.000000  0.000000  0.000000 )  
               b(2) = (  0.000000  1.000000  0.000000 )  
               b(3) = (  0.000000  0.000000  1.000000 )  


     PseudoPot. # 1 for H  read from file:
     ./H.pbe-rrkjus_psl.1.0.0.UPF
     MD5 check sum: f52b6d4d1c606e5624b1dc7b2218f220
     Pseudo is Ultrasoft, Zval =  1.0
     Generated using "atomic" code by A. Dal Corso v.5.1
     Using radial grid of  929 points,  2 beta functions with: 
                l(1) =   0
                l(2) =   0
     Q(r) pseudized with 0 coefficients 


     PseudoPot. # 2 for O  read from file:
     ./O.pbe-n-kjpaw_psl.0.1.UPF
     MD5 check sum: 0234752ac141de4415c5fc33072bef88
     Pseudo is Projector augmented-wave + core cor, Zval =  6.0
     Generated using "atomic" code by A. Dal Corso v.5.0.99 svn rev. 10869
     Shape of augmentation charge: BESSEL
     Using radial grid of 1095 points,  4 beta functions with: 
                l(1) =   0
                l(2) =   0
                l(3) =   1
                l(4) =   1
     Q(r) pseudized with 0 coefficients 


     atomic species   valence    mass     pseudopotential
        H              1.00     1.00000     H ( 1.00)
        O              6.00    16.00000     O ( 1.00)

     No symmetry found


                                    s                        frac. trans.

      isym =  1     identity                                     

 cryst.   s( 1) = (     1          0          0      )
                  (     0          1          0      )
                  (     0          0          1      )

 cart.    s( 1) = (  1.0000000  0.0000000  0.0000000 )
                  (  0.0000000  1.0000000  0.0000000 )
                  (  0.0000000  0.0000000  1.0000000 )


     point group C_1 (1)    
     there are  1 classes
     the character table:

       E    
A      1.00

     the symmetry operations in each class and the name of the first element:

     E        1
          identity                                               

   Cartesian axes

     site n.     atom                  positions (alat units)
         1           O   tau(   1) = (   0.0563542   0.2157321   0.3443262  )
         2           H   tau(   2) = (   0.0982456   0.2375665   0.3866620  )
         3           H   tau(   3) = (   0.0867572   0.1823459   0.2997690  )
         4           O   tau(   4) = (   0.2164303   0.1985313  -0.2924557  )
         5           H   tau(   5) = (   0.2739994   0.1997372  -0.2656515  )
         6           H   tau(   6) = (   0.1819016   0.1520698  -0.2663751  )
         7           O   tau(   7) = (  -0.1509514   0.2020222   0.0344564  )
         8           H   tau(   8) = (  -0.1347851   0.2033551  -0.0269337  )
         9           H   tau(   9) = (  -0.1953881   0.1575919   0.0435963  )
        10           O   tau(  10) = (   0.0537518   0.3183662  -0.0788600  )
        11           H   tau(  11) = (   0.0781250   0.2809178  -0.0338077  )
        12           H   tau(  12) = (   0.1000863   0.3530219  -0.1049470  )
        13           O   tau(  13) = (   0.0249356   0.0212542  -0.2781111  )
        14           H   tau(  14) = (   0.0786328   0.0298864  -0.2454421  )
        15           H   tau(  15) = (  -0.0230682   0.0497531  -0.2478794  )
        16           O   tau(  16) = (  -0.0278096   0.0635265   0.0608607  )
        17           H   tau(  17) = (  -0.0585808   0.0090549   0.0501339  )
        18           H   tau(  18) = (  -0.0698534   0.1096071   0.0724126  )
        19           O   tau(  19) = (  -0.0919162  -0.0839061  -0.1596344  )
        20           H   tau(  20) = (  -0.0298343  -0.0753564  -0.1495678  )
        21           H   tau(  21) = (  -0.1161752  -0.0322209  -0.1873589  )
        22           O   tau(  22) = (   0.0314097   0.0209368   0.2197944  )
        23           H   tau(  23) = (   0.0257607   0.0503878   0.1638756  )
        24           H   tau(  24) = (  -0.0093393  -0.0276446   0.2223332  )
        25           O   tau(  25) = (  -0.1384856  -0.0836077   0.0104640  )
        26           H   tau(  26) = (  -0.1954516  -0.0606500   0.0264589  )
        27           H   tau(  27) = (  -0.1306341  -0.0788283  -0.0523669  )
        28           O   tau(  28) = (  -0.2461847  -0.0422748   0.2151609  )
        29           H   tau(  29) = (  -0.2678223  -0.0284951   0.2732377  )
        30           H   tau(  30) = (  -0.1849724  -0.0586696   0.2187788  )
        31           O   tau(  31) = (  -0.2228778   0.1146849  -0.3190441  )
        32           H   tau(  32) = (  -0.2847947   0.1136693  -0.3329445  )
        33           H   tau(  33) = (  -0.1901644   0.1347420  -0.3695868  )
        34           O   tau(  34) = (  -0.2155785  -0.2662672   0.1577823  )
        35           H   tau(  35) = (  -0.2599073  -0.2274795   0.1341073  )
        36           H   tau(  36) = (  -0.1593424  -0.2524557   0.1317588  )
        37           O   tau(  37) = (   0.2359162  -0.2554262   0.0214446  )
        38           H   tau(  38) = (   0.2795214  -0.2578635   0.0674618  )
        39           H   tau(  39) = (   0.1840597  -0.2258229   0.0429616  )
        40           O   tau(  40) = (  -0.1135474   0.2418191   0.2908194  )
        41           H   tau(  41) = (  -0.0509832   0.2460083   0.3005941  )
        42           H   tau(  42) = (  -0.1414878   0.2177632   0.3424856  )
        43           O   tau(  43) = (  -0.1081650   0.0908194  -0.1919733  )
        44           H   tau(  44) = (  -0.0992218   0.1463573  -0.1626239  )
        45           H   tau(  45) = (  -0.1480317   0.0988169  -0.2407071  )
        46           O   tau(  46) = (   0.2863764   0.1950403   0.1051006  )
        47           H   tau(  47) = (   0.2478489   0.2421999   0.0872650  )
        48           H   tau(  48) = (   0.3392485   0.2192866   0.1304259  )
        49           O   tau(  49) = (   0.2840279  -0.2791774  -0.1418242  )
        50           H   tau(  50) = (   0.2345198  -0.3026557  -0.1737886  )
        51           H   tau(  51) = (   0.2693659  -0.2747915  -0.0802374  )
        52           O   tau(  52) = (   0.2314097  -0.0892567  -0.0183205  )
        53           H   tau(  53) = (   0.1753640  -0.0748486  -0.0443948  )
        54           H   tau(  54) = (   0.2460083  -0.1495931  -0.0315481  )
        55           O   tau(  55) = (  -0.0689013  -0.2152993   0.0920254  )
        56           H   tau(  56) = (  -0.0894281  -0.1667750   0.0566715  )
        57           H   tau(  57) = (  -0.0386062  -0.2570892   0.0550847  )
        58           O   tau(  58) = (   0.1674935   0.0639708  -0.1774383  )
        59           H   tau(  59) = (   0.2275379   0.0525459  -0.1944424  )
        60           H   tau(  60) = (   0.1660336   0.0845357  -0.1174065  )
        61           O   tau(  61) = (  -0.2554706   0.0733646   0.0904386  )
        62           H   tau(  62) = (  -0.2604468   0.0373126   0.1424221  )
        63           H   tau(  63) = (  -0.3134586   0.0890422   0.0699372  )
        64           O   tau(  64) = (  -0.3157118  -0.1691615  -0.0829794  )
        65           H   tau(  65) = (  -0.3241726  -0.1559594  -0.0214751  )
        66           H   tau(  66) = (  -0.2960482  -0.1169813  -0.1132999  )
        67           O   tau(  67) = (  -0.0880571  -0.1022939   0.2312828  )
        68           H   tau(  68) = (  -0.0826620  -0.1505008   0.1903434  )
        69           H   tau(  69) = (  -0.0759975  -0.1229921   0.2900578  )
        70           O   tau(  70) = (   0.2745706   0.0127490   0.1065605  )
        71           H   tau(  71) = (   0.2644786   0.0746976   0.0970397  )
        72           H   tau(  72) = (   0.2509591  -0.0202628   0.0578140  )
        73           O   tau(  73) = (   0.1381695   0.2682234   0.0682234  )
        74           H   tau(  74) = (   0.0955163   0.2431520   0.1079568  )
        75           H   tau(  75) = (   0.1242056   0.3292199   0.0578775  )
        76           O   tau(  76) = (  -0.2192409  -0.3738458   0.0187153  )
        77           H   tau(  77) = (  -0.1741631  -0.3394123  -0.0097836  )
        78           H   tau(  78) = (  -0.2075367  -0.3766258   0.0810447  )
        79           O   tau(  79) = (  -0.3258293  -0.1354199   0.0967223  )
        80           H   tau(  80) = (  -0.3859626  -0.1530016   0.1068778  )
        81           H   tau(  81) = (  -0.3094154  -0.0908245   0.1388042  )
        82           O   tau(  82) = (   0.3428664   0.0489914  -0.2045217  )
        83           H   tau(  83) = (   0.3532123   0.0052656  -0.2493520  )
        84           H   tau(  84) = (   0.3393754   0.0206830  -0.1478032  )
        85           O   tau(  85) = (  -0.0979968   0.2486741  -0.1287744  )
        86           H   tau(  86) = (  -0.1177429   0.2792675  -0.1807515  )
        87           H   tau(  87) = (  -0.0414878   0.2714605  -0.1109959  )
        88           O   tau(  88) = (  -0.0497709   0.3458496  -0.2908689  )
        89           H   tau(  89) = (   0.0090676   0.3222380  -0.2933380  )
        90           H   tau(  90) = (  -0.0469844   0.4090676  -0.2856769  )
        91           O   tau(  91) = (   0.1210955  -0.3481206  -0.0968543  )
        92           H   tau(  92) = (   0.1443897  -0.3998629  -0.1252834  )
        93           H   tau(  93) = (   0.1386138  -0.3477969  -0.0358515  )
        94           O   tau(  94) = (  -0.0939727   0.0574332   0.3759987  )
        95           H   tau(  95) = (  -0.0542076   0.0852974   0.4168112  )
        96           H   tau(  96) = (  -0.0606119   0.0251895   0.3326474  )
        97           O   tau(  97) = (   0.2032282  -0.1424462  -0.2444519  )
        98           H   tau(  98) = (   0.2305846  -0.1078413  -0.2901073  )
        99           H   tau(  99) = (   0.2468969  -0.1792663  -0.2167972  )
       100           O   tau( 100) = (  -0.2933570   0.0103116  -0.1287045  )
       101           H   tau( 101) = (  -0.2355912   0.0365509  -0.1272129  )
       102           H   tau( 102) = (  -0.3344487   0.0510225  -0.1547851  )
       103           O   tau( 103) = (  -0.0473780  -0.3322209  -0.0324430  )
       104           H   tau( 104) = (  -0.0848708  -0.3556801  -0.0779651  )
       105           H   tau( 105) = (   0.0128759  -0.3324303  -0.0524557  )
       106           O   tau( 106) = (  -0.4143599   0.1045928   0.0202387  )
       107           H   tau( 107) = (  -0.4421987   0.1485154  -0.0161308  )
       108           H   tau( 108) = (  -0.4365243   0.0471507   0.0046880  )
       109           O   tau( 109) = (   0.1337899   0.1089724  -0.0195900  )
       110           H   tau( 110) = (   0.1537836   0.1609559   0.0108448  )
       111           H   tau( 111) = (   0.0827585   0.0854243   0.0099562  )
       112           O   tau( 112) = (  -0.0713005  -0.2446233  -0.2330079  )
       113           H   tau( 113) = (  -0.0771082  -0.1835950  -0.2165624  )
       114           H   tau( 114) = (  -0.0098470  -0.2605484  -0.2338965  )
       115           O   tau( 115) = (   0.2089407  -0.0505008   0.2627014  )
       116           H   tau( 116) = (   0.2494357  -0.0412529   0.2146531  )
       117           H   tau( 117) = (   0.1493405  -0.0464386   0.2411844  )
       118           O   tau( 118) = (  -0.0488442  -0.1013672  -0.3818813  )
       119           H   tau( 119) = (  -0.0814878  -0.0678921  -0.4248010  )
       120           H   tau( 120) = (  -0.0148613  -0.0618750  -0.3456579  )
       121           O   tau( 121) = (  -0.1993297   0.3843136   0.0641612  )
       122           H   tau( 122) = (  -0.1554833   0.4169381   0.0964050  )
       123           H   tau( 123) = (  -0.1754706   0.3280140   0.0470238  )
       124           O   tau( 124) = (   0.1828537   0.1362653   0.2705084  )
       125           H   tau( 125) = (   0.2112891   0.1511812   0.2157956  )
       126           H   tau( 126) = (   0.1539740   0.0800292   0.2647325  )
       127           O   tau( 127) = (   0.1019270  -0.2459118   0.2724126  )
       128           H   tau( 128) = (   0.1418508  -0.2949502   0.2668905  )
       129           H   tau( 129) = (   0.0443580  -0.2672129   0.2884710  )
       130           O   tau( 130) = (   0.3864716  -0.0312434  -0.0557055  )
       131           H   tau( 131) = (   0.3312510  -0.0573558  -0.0385109  )
       132           H   tau( 132) = (   0.4308385  -0.0453278  -0.0125763  )
       133           O   tau( 133) = (   0.1005306  -0.1515354   0.1165890  )
       134           H   tau( 134) = (   0.0385820  -0.1546646   0.1031330  )
       135           H   tau( 135) = (   0.1103688  -0.1714211   0.1760622  )
       136           O   tau( 136) = (   0.0896769  -0.0963529  -0.1240076  )
       137           H   tau( 137) = (   0.1048467  -0.0381047  -0.1441536  )
       138           H   tau( 138) = (   0.1251577  -0.1392091  -0.1545820  )
       139           O   tau( 139) = (  -0.0169749   0.2182076   0.1290930  )
       140           H   tau( 140) = (  -0.0388093   0.2075443   0.1877410  )
       141           H   tau( 141) = (  -0.0657341   0.2296960   0.0901212  )

   Crystallographic axes

     site n.     atom                  positions (cryst. coord.)
         1           O   tau(   1) = (  0.0563542  0.2157321  0.3443262  )
         2           H   tau(   2) = (  0.0982456  0.2375665  0.3866620  )
         3           H   tau(   3) = (  0.0867572  0.1823459  0.2997690  )
         4           O   tau(   4) = (  0.2164303  0.1985313 -0.2924557  )
         5           H   tau(   5) = (  0.2739994  0.1997372 -0.2656515  )
         6           H   tau(   6) = (  0.1819016  0.1520698 -0.2663751  )
         7           O   tau(   7) = ( -0.1509514  0.2020222  0.0344564  )
         8           H   tau(   8) = ( -0.1347851  0.2033551 -0.0269337  )
         9           H   tau(   9) = ( -0.1953881  0.1575919  0.0435963  )
        10           O   tau(  10) = (  0.0537518  0.3183662 -0.0788600  )
        11           H   tau(  11) = (  0.0781250  0.2809178 -0.0338077  )
        12           H   tau(  12) = (  0.1000863  0.3530219 -0.1049470  )
        13           O   tau(  13) = (  0.0249356  0.0212542 -0.2781111  )
        14           H   tau(  14) = (  0.0786328  0.0298864 -0.2454421  )
        15           H   tau(  15) = ( -0.0230682  0.0497531 -0.2478794  )
        16           O   tau(  16) = ( -0.0278096  0.0635265  0.0608607  )
        17           H   tau(  17) = ( -0.0585808  0.0090549  0.0501339  )
        18           H   tau(  18) = ( -0.0698534  0.1096071  0.0724126  )
        19           O   tau(  19) = ( -0.0919162 -0.0839061 -0.1596344  )
        20           H   tau(  20) = ( -0.0298343 -0.0753564 -0.1495678  )
        21           H   tau(  21) = ( -0.1161752 -0.0322209 -0.1873589  )
        22           O   tau(  22) = (  0.0314097  0.0209368  0.2197944  )
        23           H   tau(  23) = (  0.0257607  0.0503878  0.1638756  )
        24           H   tau(  24) = ( -0.0093393 -0.0276446  0.2223332  )
        25           O   tau(  25) = ( -0.1384856 -0.0836077  0.0104640  )
        26           H   tau(  26) = ( -0.1954516 -0.0606500  0.0264589  )
        27           H   tau(  27) = ( -0.1306341 -0.0788283 -0.0523669  )
        28           O   tau(  28) = ( -0.2461847 -0.0422748  0.2151609  )
        29           H   tau(  29) = ( -0.2678223 -0.0284951  0.2732377  )
        30           H   tau(  30) = ( -0.1849724 -0.0586696  0.2187788  )
        31           O   tau(  31) = ( -0.2228778  0.1146849 -0.3190441  )
        32           H   tau(  32) = ( -0.2847947  0.1136693 -0.3329445  )
        33           H   tau(  33) = ( -0.1901644  0.1347420 -0.3695868  )
        34           O   tau(  34) = ( -0.2155785 -0.2662672  0.1577823  )
        35           H   tau(  35) = ( -0.2599073 -0.2274795  0.1341073  )
        36           H   tau(  36) = ( -0.1593424 -0.2524557  0.1317588  )
        37           O   tau(  37) = (  0.2359162 -0.2554262  0.0214446  )
        38           H   tau(  38) = (  0.2795214 -0.2578635  0.0674618  )
        39           H   tau(  39) = (  0.1840597 -0.2258229  0.0429616  )
        40           O   tau(  40) = ( -0.1135474  0.2418191  0.2908194  )
        41           H   tau(  41) = ( -0.0509832  0.2460083  0.3005941  )
        42           H   tau(  42) = ( -0.1414878  0.2177632  0.3424856  )
        43           O   tau(  43) = ( -0.1081650  0.0908194 -0.1919733  )
        44           H   tau(  44) = ( -0.0992218  0.1463573 -0.1626239  )
        45           H   tau(  45) = ( -0.1480317  0.0988169 -0.2407071  )
        46           O   tau(  46) = (  0.2863764  0.1950403  0.1051006  )
        47           H   tau(  47) = (  0.2478489  0.2421999  0.0872650  )
        48           H   tau(  48) = (  0.3392485  0.2192866  0.1304259  )
        49           O   tau(  49) = (  0.2840279 -0.2791774 -0.1418242  )
        50           H   tau(  50) = (  0.2345198 -0.3026557 -0.1737886  )
        51           H   tau(  51) = (  0.2693659 -0.2747915 -0.0802374  )
        52           O   tau(  52) = (  0.2314097 -0.0892567 -0.0183205  )
        53           H   tau(  53) = (  0.1753640 -0.0748486 -0.0443948  )
        54           H   tau(  54) = (  0.2460083 -0.1495931 -0.0315481  )
        55           O   tau(  55) = ( -0.0689013 -0.2152993  0.0920254  )
        56           H   tau(  56) = ( -0.0894281 -0.1667750  0.0566715  )
        57           H   tau(  57) = ( -0.0386062 -0.2570892  0.0550847  )
        58           O   tau(  58) = (  0.1674935  0.0639708 -0.1774383  )
        59           H   tau(  59) = (  0.2275379  0.0525459 -0.1944424  )
        60           H   tau(  60) = (  0.1660336  0.0845357 -0.1174065  )
        61           O   tau(  61) = ( -0.2554706  0.0733646  0.0904386  )
        62           H   tau(  62) = ( -0.2604468  0.0373126  0.1424221  )
        63           H   tau(  63) = ( -0.3134586  0.0890422  0.0699372  )
        64           O   tau(  64) = ( -0.3157118 -0.1691615 -0.0829794  )
        65           H   tau(  65) = ( -0.3241726 -0.1559594 -0.0214751  )
        66           H   tau(  66) = ( -0.2960482 -0.1169813 -0.1132999  )
        67           O   tau(  67) = ( -0.0880571 -0.1022939  0.2312828  )
        68           H   tau(  68) = ( -0.0826620 -0.1505008  0.1903434  )
        69           H   tau(  69) = ( -0.0759975 -0.1229921  0.2900578  )
        70           O   tau(  70) = (  0.2745706  0.0127490  0.1065605  )
        71           H   tau(  71) = (  0.2644786  0.0746976  0.0970397  )
        72           H   tau(  72) = (  0.2509591 -0.0202628  0.0578140  )
        73           O   tau(  73) = (  0.1381695  0.2682234  0.0682234  )
        74           H   tau(  74) = (  0.0955163  0.2431520  0.1079568  )
        75           H   tau(  75) = (  0.1242056  0.3292199  0.0578775  )
        76           O   tau(  76) = ( -0.2192409 -0.3738458  0.0187153  )
        77           H   tau(  77) = ( -0.1741631 -0.3394123 -0.0097836  )
        78           H   tau(  78) = ( -0.2075367 -0.3766258  0.0810447  )
        79           O   tau(  79) = ( -0.3258293 -0.1354199  0.0967223  )
        80           H   tau(  80) = ( -0.3859626 -0.1530016  0.1068778  )
        81           H   tau(  81) = ( -0.3094154 -0.0908245  0.1388042  )
        82           O   tau(  82) = (  0.3428664  0.0489914 -0.2045217  )
        83           H   tau(  83) = (  0.3532123  0.0052656 -0.2493520  )
        84           H   tau(  84) = (  0.3393754  0.0206830 -0.1478032  )
        85           O   tau(  85) = ( -0.0979968  0.2486741 -0.1287744  )
        86           H   tau(  86) = ( -0.1177429  0.2792675 -0.1807515  )
        87           H   tau(  87) = ( -0.0414878  0.2714605 -0.1109959  )
        88           O   tau(  88) = ( -0.0497709  0.3458496 -0.2908689  )
        89           H   tau(  89) = (  0.0090676  0.3222380 -0.2933380  )
        90           H   tau(  90) = ( -0.0469844  0.4090676 -0.2856769  )
        91           O   tau(  91) = (  0.1210955 -0.3481206 -0.0968543  )
        92           H   tau(  92) = (  0.1443897 -0.3998629 -0.1252834  )
        93           H   tau(  93) = (  0.1386138 -0.3477969 -0.0358515  )
        94           O   tau(  94) = ( -0.0939727  0.0574332  0.3759987  )
        95           H   tau(  95) = ( -0.0542076  0.0852974  0.4168112  )
        96           H   tau(  96) = ( -0.0606119  0.0251895  0.3326474  )
        97           O   tau(  97) = (  0.2032282 -0.1424462 -0.2444519  )
        98           H   tau(  98) = (  0.2305846 -0.1078413 -0.2901073  )
        99           H   tau(  99) = (  0.2468969 -0.1792663 -0.2167972  )
       100           O   tau( 100) = ( -0.2933570  0.0103116 -0.1287045  )
       101           H   tau( 101) = ( -0.2355912  0.0365509 -0.1272129  )
       102           H   tau( 102) = ( -0.3344487  0.0510225 -0.1547851  )
       103           O   tau( 103) = ( -0.0473780 -0.3322209 -0.0324430  )
       104           H   tau( 104) = ( -0.0848708 -0.3556801 -0.0779651  )
       105           H   tau( 105) = (  0.0128759 -0.3324303 -0.0524557  )
       106           O   tau( 106) = ( -0.4143599  0.1045928  0.0202387  )
       107           H   tau( 107) = ( -0.4421987  0.1485154 -0.0161308  )
       108           H   tau( 108) = ( -0.4365243  0.0471507  0.0046880  )
       109           O   tau( 109) = (  0.1337899  0.1089724 -0.0195900  )
       110           H   tau( 110) = (  0.1537836  0.1609559  0.0108448  )
       111           H   tau( 111) = (  0.0827585  0.0854243  0.0099562  )
       112           O   tau( 112) = ( -0.0713005 -0.2446233 -0.2330079  )
       113           H   tau( 113) = ( -0.0771082 -0.1835950 -0.2165624  )
       114           H   tau( 114) = ( -0.0098470 -0.2605484 -0.2338965  )
       115           O   tau( 115) = (  0.2089407 -0.0505008  0.2627014  )
       116           H   tau( 116) = (  0.2494357 -0.0412529  0.2146531  )
       117           H   tau( 117) = (  0.1493405 -0.0464386  0.2411844  )
       118           O   tau( 118) = ( -0.0488442 -0.1013672 -0.3818813  )
       119           H   tau( 119) = ( -0.0814878 -0.0678921 -0.4248010  )
       120           H   tau( 120) = ( -0.0148613 -0.0618750 -0.3456579  )
       121           O   tau( 121) = ( -0.1993297  0.3843136  0.0641612  )
       122           H   tau( 122) = ( -0.1554833  0.4169381  0.0964050  )
       123           H   tau( 123) = ( -0.1754706  0.3280140  0.0470238  )
       124           O   tau( 124) = (  0.1828537  0.1362653  0.2705084  )
       125           H   tau( 125) = (  0.2112891  0.1511812  0.2157956  )
       126           H   tau( 126) = (  0.1539740  0.0800292  0.2647325  )
       127           O   tau( 127) = (  0.1019270 -0.2459118  0.2724126  )
       128           H   tau( 128) = (  0.1418508 -0.2949502  0.2668905  )
       129           H   tau( 129) = (  0.0443580 -0.2672129  0.2884710  )
       130           O   tau( 130) = (  0.3864716 -0.0312434 -0.0557055  )
       131           H   tau( 131) = (  0.3312510 -0.0573558 -0.0385109  )
       132           H   tau( 132) = (  0.4308385 -0.0453278 -0.0125763  )
       133           O   tau( 133) = (  0.1005306 -0.1515354  0.1165890  )
       134           H   tau( 134) = (  0.0385820 -0.1546646  0.1031330  )
       135           H   tau( 135) = (  0.1103688 -0.1714211  0.1760622  )
       136           O   tau( 136) = (  0.0896769 -0.0963529 -0.1240076  )
       137           H   tau( 137) = (  0.1048467 -0.0381047 -0.1441536  )
       138           H   tau( 138) = (  0.1251577 -0.1392091 -0.1545820  )
       139           O   tau( 139) = ( -0.0169749  0.2182076  0.1290930  )
       140           H   tau( 140) = ( -0.0388093  0.2075443  0.1877410  )
       141           H   tau( 141) = ( -0.0657341  0.2296960  0.0901212  )

     number of k points=     1
                       cart. coord. in units 2pi/alat
        k(    1) = (   0.0000000   0.0000000   0.0000000), wk =   2.0000000

                       cryst. coord.
        k(    1) = (   0.0000000   0.0000000   0.0000000), wk =   2.0000000

     Dense  grid:  2343120 G-vectors     FFT dimensions: ( 216, 216, 216)

     Smooth grid:   828370 G-vectors     FFT dimensions: ( 150, 150, 150)

     Dynamical RAM for                 wfc:       6.19 MB

     Dynamical RAM for     wfc (w. buffer):       6.19 MB

     Dynamical RAM for           str. fact:       1.49 MB

     Dynamical RAM for           local pot:       0.00 MB

     Dynamical RAM for          nlocal pot:      18.56 MB

     Dynamical RAM for                qrad:       1.00 MB

     Dynamical RAM for          rho,v,vnew:       7.04 MB

     Dynamical RAM for               rhoin:       2.35 MB

     Dynamical RAM for            rho*nmix:      11.91 MB

     Dynamical RAM for           G-vectors:       2.92 MB

     Dynamical RAM for          h,s,v(r/c):       3.24 MB

     Dynamical RAM for          <psi|beta>:       0.81 MB

     Dynamical RAM for                 psi:      12.38 MB

     Dynamical RAM for                hpsi:      12.38 MB

     Dynamical RAM for                spsi:      12.38 MB

     Dynamical RAM for      wfcinit/wfcrot:      20.39 MB

     Dynamical RAM for           addusdens:     102.01 MB

     Dynamical RAM for          addusforce:     240.96 MB

     Estimated static dynamical RAM per process >      61.71 MB

     Estimated max dynamical RAM per process >     302.68 MB

     Estimated total dynamical RAM >      14.19 GB

     Initial potential from superposition of free atoms

     starting charge  375.99904, renormalised to  376.00000

     negative rho (up, down):  7.585E-04 0.000E+00
     Starting wfcs are  282 randomized atomic wfcs
     Checking if some PAW data can be deallocated... 
       PAW data deallocated on    1 nodes for type:  2

     total cpu time spent up to now is        3.3 secs

     Self-consistent Calculation

     iteration #  1     ecut=    60.00 Ry     beta= 0.70
     Davidson diagonalization with overlap
     ethr =  1.00E-02,  avg # of iterations =  2.0

     negative rho (up, down):  2.076E-03 0.000E+00

     total cpu time spent up to now is        5.3 secs

     total energy              =   -2062.55369651 Ry
     estimated scf accuracy    <      18.00582924 Ry

     iteration #  2     ecut=    60.00 Ry     beta= 0.70
     Davidson diagonalization with overlap
     ethr =  4.79E-03,  avg # of iterations =  3.0

     negative rho (up, down):  1.996E-03 0.000E+00

     total cpu time spent up to now is        7.7 secs

     total energy              =   -2068.01866255 Ry
     estimated scf accuracy    <      14.47108545 Ry

     iteration #  3     ecut=    60.00 Ry     beta= 0.70
     Davidson diagonalization with overlap
     ethr =  3.85E-03,  avg # of iterations =  2.0

     negative rho (up, down):  1.803E-03 0.000E+00

     total cpu time spent up to now is        9.6 secs

     total energy              =   -2070.08723965 Ry
     estimated scf accuracy    <       0.53667875 Ry

     iteration #  4     ecut=    60.00 Ry     beta= 0.70
     Davidson diagonalization with overlap
     ethr =  1.43E-04,  avg # of iterations =  4.0

     negative rho (up, down):  2.266E-03 0.000E+00

     total cpu time spent up to now is       12.3 secs

     total energy              =   -2070.56424426 Ry
     estimated scf accuracy    <       0.62937984 Ry

     iteration #  5     ecut=    60.00 Ry     beta= 0.70
     Davidson diagonalization with overlap
     ethr =  1.43E-04,  avg # of iterations =  2.0

     negative rho (up, down):  2.379E-03 0.000E+00

     total cpu time spent up to now is       14.0 secs

     total energy              =   -2070.57386374 Ry
     estimated scf accuracy    <       0.15686104 Ry

     iteration #  6     ecut=    60.00 Ry     beta= 0.70
     Davidson diagonalization with overlap
     ethr =  4.17E-05,  avg # of iterations =  2.0

     negative rho (up, down):  2.416E-03 0.000E+00

     total cpu time spent up to now is       15.6 secs

     total energy              =   -2070.57023494 Ry
     estimated scf accuracy    <       0.06447288 Ry

     iteration #  7     ecut=    60.00 Ry     beta= 0.70
     Davidson diagonalization with overlap
     ethr =  1.71E-05,  avg # of iterations =  2.0

     negative rho (up, down):  2.469E-03 0.000E+00

     total cpu time spent up to now is       17.3 secs

     total energy              =   -2070.56259265 Ry
     estimated scf accuracy    <       0.02755559 Ry

     iteration #  8     ecut=    60.00 Ry     beta= 0.70
     Davidson diagonalization with overlap
     ethr =  7.33E-06,  avg # of iterations =  3.0

     negative rho (up, down):  2.449E-03 0.000E+00

     total cpu time spent up to now is       19.3 secs

     total energy              =   -2070.56905517 Ry
     estimated scf accuracy    <       0.00059103 Ry

     iteration #  9     ecut=    60.00 Ry     beta= 0.70
     Davidson diagonalization with overlap
     ethr =  1.57E-07,  avg # of iterations =  5.0

     negative rho (up, down):  2.421E-03 0.000E+00

     total cpu time spent up to now is       22.0 secs

     total energy              =   -2070.56975022 Ry
     estimated scf accuracy    <       0.00074647 Ry

     iteration # 10     ecut=    60.00 Ry     beta= 0.70
     Davidson diagonalization with overlap
     ethr =  1.57E-07,  avg # of iterations =  2.0

     negative rho (up, down):  2.396E-03 0.000E+00

     total cpu time spent up to now is       23.6 secs

     total energy              =   -2070.56950551 Ry
     estimated scf accuracy    <       0.00058788 Ry

     iteration # 11     ecut=    60.00 Ry     beta= 0.70
     Davidson diagonalization with overlap
     ethr =  1.56E-07,  avg # of iterations =  2.0

     negative rho (up, down):  2.389E-03 0.000E+00

     total cpu time spent up to now is       25.5 secs

     total energy              =   -2070.56957475 Ry
     estimated scf accuracy    <       0.00002979 Ry

     iteration # 12     ecut=    60.00 Ry     beta= 0.70
     Davidson diagonalization with overlap
     ethr =  7.92E-09,  avg # of iterations =  3.0

     negative rho (up, down):  2.391E-03 0.000E+00

     total cpu time spent up to now is       27.8 secs

     total energy              =   -2070.56959116 Ry
     estimated scf accuracy    <       0.00000908 Ry

     iteration # 13     ecut=    60.00 Ry     beta= 0.70
     Davidson diagonalization with overlap
     ethr =  2.41E-09,  avg # of iterations =  2.0

     negative rho (up, down):  2.393E-03 0.000E+00

     total cpu time spent up to now is       29.5 secs

     total energy              =   -2070.56958940 Ry
     estimated scf accuracy    <       0.00000533 Ry

     iteration # 14     ecut=    60.00 Ry     beta= 0.70
     Davidson diagonalization with overlap
     ethr =  1.42E-09,  avg # of iterations =  2.0

     negative rho (up, down):  2.393E-03 0.000E+00

     total cpu time spent up to now is       31.3 secs

     total energy              =   -2070.56958984 Ry
     estimated scf accuracy    <       0.00000046 Ry

     iteration # 15     ecut=    60.00 Ry     beta= 0.70
     Davidson diagonalization with overlap
     ethr =  1.24E-10,  avg # of iterations =  3.0

     negative rho (up, down):  2.393E-03 0.000E+00

     total cpu time spent up to now is       33.4 secs

     total energy              =   -2070.56958998 Ry
     estimated scf accuracy    <       0.00000004 Ry

     iteration # 16     ecut=    60.00 Ry     beta= 0.70
     Davidson diagonalization with overlap
     ethr =  1.03E-11,  avg # of iterations =  4.0

     negative rho (up, down):  2.393E-03 0.000E+00

     total cpu time spent up to now is       35.7 secs

     total energy              =   -2070.56958999 Ry
     estimated scf accuracy    <       0.00000006 Ry

     iteration # 17     ecut=    60.00 Ry     beta= 0.70
     Davidson diagonalization with overlap
     ethr =  1.03E-11,  avg # of iterations =  2.0

     negative rho (up, down):  2.393E-03 0.000E+00

     total cpu time spent up to now is       37.4 secs

     total energy              =   -2070.56958999 Ry
     estimated scf accuracy    <       0.00000002 Ry

     iteration # 18     ecut=    60.00 Ry     beta= 0.70
     Davidson diagonalization with overlap
     ethr =  5.95E-12,  avg # of iterations =  3.0

     negative rho (up, down):  2.393E-03 0.000E+00

     total cpu time spent up to now is       39.5 secs

     total energy              =   -2070.56958999 Ry
     estimated scf accuracy    <          1.6E-09 Ry

     iteration # 19     ecut=    60.00 Ry     beta= 0.70
     Davidson diagonalization with overlap
     ethr =  4.19E-13,  avg # of iterations =  3.0

     negative rho (up, down):  2.393E-03 0.000E+00

     total cpu time spent up to now is       41.5 secs

     total energy              =   -2070.56958999 Ry
     estimated scf accuracy    <          8.7E-10 Ry

     iteration # 20     ecut=    60.00 Ry     beta= 0.70
     Davidson diagonalization with overlap
     ethr =  2.31E-13,  avg # of iterations =  2.0

     negative rho (up, down):  2.393E-03 0.000E+00

     total cpu time spent up to now is       43.2 secs

     total energy              =   -2070.56958999 Ry
     estimated scf accuracy    <          1.5E-10 Ry

     iteration # 21     ecut=    60.00 Ry     beta= 0.70
     Davidson diagonalization with overlap
     ethr =  1.00E-13,  avg # of iterations =  2.0

     negative rho (up, down):  2.393E-03 0.000E+00

     total cpu time spent up to now is       44.8 secs

     End of self-consistent calculation

          k = 0.0000 0.0000 0.0000 (103459 PWs)   bands (ev):

   -25.3038 -25.2112 -25.1509 -25.0569 -24.8020 -24.6252 -24.4872 -24.3848
   -24.3225 -24.2950 -24.2721 -24.2298 -24.0965 -24.0461 -24.0369 -23.9849
   -23.9568 -23.8997 -23.8660 -23.8318 -23.7686 -23.7065 -23.6693 -23.5934
   -23.5741 -23.4780 -23.4199 -23.3116 -23.2778 -23.2115 -23.1831 -23.1383
   -23.1244 -23.0913 -22.7844 -22.7811 -22.7062 -22.6612 -22.4919 -22.3526
   -22.1986 -21.9969 -21.9097 -21.8909 -21.8409 -21.7385 -21.6512 -13.4317
   -13.2945 -13.2217 -13.1308 -12.9426 -12.8340 -12.6457 -12.5170 -12.4840
   -12.4474 -12.4255 -12.4071 -12.3445 -12.3153 -12.2633 -12.2592 -12.2165
   -12.1823 -12.0810 -12.0296 -11.9642 -11.9443 -11.8722 -11.8355 -11.8284
   -11.8104 -11.6735 -11.5967 -11.5812 -11.5182 -11.4530 -11.4310 -11.4159
   -11.3134 -11.1261 -11.1192 -10.9712 -10.9584 -10.8738 -10.7141 -10.5830
   -10.4297 -10.2372 -10.1936 -10.1597 -10.1333  -9.8940  -9.7214  -9.6896
    -9.6662  -9.5851  -9.3631  -9.3422  -9.2272  -9.0098  -8.9617  -8.9219
    -8.7673  -8.6929  -8.6608  -8.5906  -8.4801  -8.4332  -8.3565  -8.2637
    -8.2552  -8.1581  -8.1398  -8.1063  -8.0222  -7.9541  -7.9139  -7.8107
    -7.7222  -7.7053  -7.6303  -7.5951  -7.5307  -7.4510  -7.3959  -7.3732
    -7.3319  -7.2769  -7.1680  -7.1533  -7.1275  -7.0693  -7.0072  -6.9588
    -6.8996  -6.8617  -6.8054  -6.7673  -6.7001  -6.6233  -6.5609  -6.5308
    -6.4619  -6.4299  -6.4171  -6.3536  -6.3391  -6.3097  -6.2886  -6.2451
    -6.2136  -6.2008  -6.1549  -6.1339  -6.0716  -6.0451  -6.0096  -5.9917
    -5.9749  -5.9497  -5.8984  -5.8744  -5.8059  -5.7779  -5.7204  -5.6915
    -5.6431  -5.5973  -5.5710  -5.5621  -5.4757  -5.4453  -5.3599  -5.2467
    -5.1749  -5.1284  -5.0332  -4.8506  -4.6337  -4.5815  -4.4897  -4.3185
    -4.2922  -4.1174  -4.0971  -3.7373

     occupation numbers 
     1.0000   1.0000   1.0000   1.0000   1.0000   1.0000   1.0000   1.0000
     1.0000   1.0000   1.0000   1.0000   1.0000   1.0000   1.0000   1.0000
     1.0000   1.0000   1.0000   1.0000   1.0000   1.0000   1.0000   1.0000
     1.0000   1.0000   1.0000   1.0000   1.0000   1.0000   1.0000   1.0000
     1.0000   1.0000   1.0000   1.0000   1.0000   1.0000   1.0000   1.0000
     1.0000   1.0000   1.0000   1.0000   1.0000   1.0000   1.0000   1.0000
     1.0000   1.0000   1.0000   1.0000   1.0000   1.0000   1.0000   1.0000
     1.0000   1.0000   1.0000   1.0000   1.0000   1.0000   1.0000   1.0000
     1.0000   1.0000   1.0000   1.0000   1.0000   1.0000   1.0000   1.0000
     1.0000   1.0000   1.0000   1.0000   1.0000   1.0000   1.0000   1.0000
     1.0000   1.0000   1.0000   1.0000   1.0000   1.0000   1.0000   1.0000
     1.0000   1.0000   1.0000   1.0000   1.0000   1.0000   1.0000   1.0000
     1.0000   1.0000   1.0000   1.0000   1.0000   1.0000   1.0000   1.0000
     1.0000   1.0000   1.0000   1.0000   1.0000   1.0000   1.0000   1.0000
     1.0000   1.0000   1.0000   1.0000   1.0000   1.0000   1.0000   1.0000
     1.0000   1.0000   1.0000   1.0000   1.0000   1.0000   1.0000   1.0000
     1.0000   1.0000   1.0000   1.0000   1.0000   1.0000   1.0000   1.0000
     1.0000   1.0000   1.0000   1.0000   1.0000   1.0000   1.0000   1.0000
     1.0000   1.0000   1.0000   1.0000   1.0000   1.0000   1.0000   1.0000
     1.0000   1.0000   1.0000   1.0000   1.0000   1.0000   1.0000   1.0000
     1.0000   1.0000   1.0000   1.0000   1.0000   1.0000   1.0000   1.0000
     1.0000   1.0000   1.0000   1.0000   1.0000   1.0000   1.0000   1.0000
     1.0000   1.0000   1.0000   1.0000   1.0000   1.0000   1.0000   1.0000
     1.0000   1.0000   1.0000   1.0000

     highest occupied level (ev):    -3.7373

!    total energy              =   -2070.56958999 Ry
     estimated scf accuracy    <          1.0E-11 Ry

     The total energy is the sum of the following terms:
     one-electron contribution =   -5321.72567592 Ry
     hartree contribution      =    2754.42065239 Ry
     xc contribution           =    -415.19270600 Ry
     ewald contribution        =    1358.68791809 Ry
     one-center paw contrib.   =    -446.75977856 Ry
      -> PAW hartree energy AE =      28.29962054 Ry
      -> PAW hartree energy PS =     -28.16413916 Ry
      -> PAW xc energy AE      =     -17.00478032 Ry
      -> PAW xc energy PS      =       7.36504474 Ry
      -> total E_H with PAW    =    2754.55613377 Ry
      -> total E_XC with PAW   =    -424.83244158 Ry

     convergence has been achieved in  21 iterations

     negative rho (up, down):  2.393E-03 0.000E+00

     Forces acting on atoms (cartesian axes, Ry/au):

     atom    1 type  2   force =    -0.00336813    0.02010267    0.02530341
     atom    2 type  1   force =    -0.02614870   -0.02629842   -0.05011976
     atom    3 type  1   force =     0.02528040    0.01777844    0.03375619
     atom    4 type  2   force =     0.01686287   -0.00185454    0.01408518
     atom    5 type  1   force =    -0.05717553   -0.01884110   -0.01448226
     atom    6 type  1   force =     0.03889764    0.02865119    0.00064103
     atom    7 type  2   force =    -0.00465885   -0.00427598   -0.04400287
     atom    8 type  1   force =    -0.02201653    0.00394737    0.02456374
     atom    9 type  1   force =     0.01311435    0.00743209    0.01248935
     atom   10 type  2   force =     0.03007930    0.01569050   -0.00010356
     atom   11 type  1   force =     0.00383634    0.01838455   -0.03000440
     atom   12 type  1   force =    -0.03546640   -0.04158886    0.02284597
     atom   13 type  2   force =     0.01487507    0.00542243    0.00630961
     atom   14 type  1   force =    -0.03697979    0.00880112   -0.01475471
     atom   15 type  1   force =     0.03122197   -0.00271371    0.00097804
     atom   16 type  2   force =    -0.01267351   -0.02039305   -0.00689824
     atom   17 type  1   force =     0.00043445    0.03198225   -0.00134322
     atom   18 type  1   force =     0.02218940   -0.03070261   -0.01281080
     atom   19 type  2   force =    -0.00775192    0.01853699    0.01096681
     atom   20 type  1   force =    -0.02457320    0.00090184   -0.01458179
     atom   21 type  1   force =     0.03773203   -0.02904960    0.02122948
     atom   22 type  2   force =     0.00895950    0.00095150    0.01239664
     atom   23 type  1   force =    -0.01887489   -0.03062213    0.01960748
     atom   24 type  1   force =     0.01940962    0.02928106   -0.02677294
     atom   25 type  2   force =    -0.01850132    0.02851579    0.01726427
     atom   26 type  1   force =     0.03770641   -0.01574385   -0.02082877
     atom   27 type  1   force =    -0.00445025   -0.00946351    0.00008169
     atom   28 type  2   force =    -0.02714977    0.02235816    0.04249643
     atom   29 type  1   force =     0.02912769   -0.01317030   -0.04603503
     atom   30 type  1   force =    -0.01061454   -0.00493399    0.01582788
     atom   31 type  2   force =    -0.01494274    0.01484942   -0.04310806
     atom   32 type  1   force =     0.05731792    0.00265028    0.00101067
     atom   33 type  1   force =    -0.04107111   -0.01497106    0.03247206
     atom   34 type  2   force =    -0.00515553    0.01309819    0.01636176
     atom   35 type  1   force =     0.03849277   -0.02053646    0.00330287
     atom   36 type  1   force =    -0.04108823    0.00117302    0.00180699
     atom   37 type  2   force =     0.01314141   -0.01382758    0.03746818
     atom   38 type  1   force =    -0.04468295    0.00838604   -0.02853091
     atom   39 type  1   force =     0.01915047    0.00393166    0.02033801
     atom   40 type  2   force =    -0.00226523   -0.00011134    0.01444147
     atom   41 type  1   force =    -0.03328185   -0.00785294    0.03571519
     atom   42 type  1   force =     0.04400350    0.01138095   -0.04461700
     atom   43 type  2   force =    -0.02136381   -0.01176724   -0.01566852
     atom   44 type  1   force =    -0.00512250    0.00012753   -0.01513380
     atom   45 type  1   force =     0.00777391    0.01184176    0.02781657
     atom   46 type  2   force =     0.02765659    0.03245820    0.01541695
     atom   47 type  1   force =     0.01901221   -0.02065217    0.01837421
     atom   48 type  1   force =    -0.04637834   -0.01605476   -0.02318722
     atom   49 type  2   force =    -0.01746313   -0.00110292   -0.02800953
     atom   50 type  1   force =     0.03431560    0.01735075    0.04705671
     atom   51 type  1   force =    -0.01120962   -0.00991705   -0.03793848
     atom   52 type  2   force =     0.00315627   -0.01784790   -0.02738361
     atom   53 type  1   force =     0.01671569   -0.02590643   -0.00124939
     atom   54 type  1   force =    -0.02499244    0.03719345    0.01195557
     atom   55 type  2   force =     0.03882656    0.01189564    0.00548781
     atom   56 type  1   force =    -0.01285324   -0.01193468   -0.01699501
     atom   57 type  1   force =    -0.03852332    0.01732518    0.00360737
     atom   58 type  2   force =     0.00732056   -0.01156415   -0.00976370
     atom   59 type  1   force =    -0.01149197    0.00661965    0.01376988
     atom   60 type  1   force =    -0.00439189    0.00216310   -0.00645802
     atom   61 type  2   force =    -0.02346048    0.00262428   -0.01324873
     atom   62 type  1   force =     0.00576372    0.02111566   -0.01477590
     atom   63 type  1   force =     0.02327811   -0.01277048    0.01230331
     atom   64 type  2   force =     0.00135180    0.02257321    0.00421984
     atom   65 type  1   force =     0.01896886    0.00692800   -0.04795383
     atom   66 type  1   force =    -0.02233059   -0.02998750    0.03847237
     atom   67 type  2   force =     0.01013424   -0.02283419    0.03387890
     atom   68 type  1   force =     0.00343109    0.00292701    0.01998163
     atom   69 type  1   force =    -0.01547172    0.00232383   -0.04883101
     atom   70 type  2   force =    -0.00513765    0.02577423   -0.00707232
     atom   71 type  1   force =     0.01217273   -0.04638145   -0.00003048
     atom   72 type  1   force =     0.00837644    0.02211580    0.02947244
     atom   73 type  2   force =     0.00397427    0.04076543   -0.01091154
     atom   74 type  1   force =    -0.02131042    0.02247317   -0.00819506
     atom   75 type  1   force =     0.00131023   -0.04753892    0.02795834
     atom   76 type  2   force =     0.02476504   -0.00447230   -0.00671791
     atom   77 type  1   force =    -0.04483360   -0.02298478    0.05389795
     atom   78 type  1   force =    -0.00138237    0.02553962   -0.05148102
     atom   79 type  2   force =    -0.05245783   -0.00630095    0.00667294
     atom   80 type  1   force =     0.05041386    0.02071511    0.00077760
     atom   81 type  1   force =    -0.00913168   -0.02547055   -0.00176963
     atom   82 type  2   force =    -0.01896972   -0.02579086   -0.02298643
     atom   83 type  1   force =    -0.00369433    0.02819249    0.05088792
     atom   84 type  1   force =     0.03657758   -0.00106930   -0.03050428
     atom   85 type  2   force =    -0.00506906    0.00345729   -0.01638341
     atom   86 type  1   force =     0.02982916   -0.00868924    0.03757766
     atom   87 type  1   force =    -0.01560224    0.00996569   -0.02545733
     atom   88 type  2   force =     0.02686297    0.01974732    0.00601981
     atom   89 type  1   force =    -0.04187227    0.03222326    0.00177581
     atom   90 type  1   force =     0.01135689   -0.05512656   -0.00652812
     atom   91 type  2   force =     0.00875791   -0.02876034    0.01385151
     atom   92 type  1   force =    -0.01899401    0.03560868    0.04044370
     atom   93 type  1   force =     0.01096986   -0.01293049   -0.04980989
     atom   94 type  2   force =     0.02012369   -0.01265769    0.01248221
     atom   95 type  1   force =    -0.01437399   -0.02953675   -0.04908008
     atom   96 type  1   force =    -0.00388315    0.04896542    0.03775354
     atom   97 type  2   force =     0.04192443   -0.00147804   -0.02057678
     atom   98 type  1   force =    -0.01980137   -0.03668215    0.04028261
     atom   99 type  1   force =    -0.00749367    0.02210710   -0.01997639
     atom  100 type  2   force =     0.00500391    0.03363379   -0.01455308
     atom  101 type  1   force =    -0.04635069   -0.00190423   -0.01093210
     atom  102 type  1   force =     0.04798827   -0.02715375    0.02183467
     atom  103 type  2   force =     0.02085697   -0.01491641   -0.01921239
     atom  104 type  1   force =     0.04580094    0.02176891    0.02244609
     atom  105 type  1   force =    -0.04771488   -0.01180582   -0.02089716
     atom  106 type  2   force =    -0.03278923   -0.00865475   -0.02668670
     atom  107 type  1   force =     0.01666384   -0.04659161    0.02713629
     atom  108 type  1   force =     0.01290069    0.05605819   -0.00041219
     atom  109 type  2   force =     0.00163401    0.01634195    0.02479366
     atom  110 type  1   force =    -0.02536402   -0.04124985   -0.01891611
     atom  111 type  1   force =     0.01423877    0.02250116   -0.00743347
     atom  112 type  2   force =     0.03835773   -0.01486998    0.00792430
     atom  113 type  1   force =     0.01226345   -0.03016698   -0.00772774
     atom  114 type  1   force =    -0.05323448    0.03282646    0.00037068
     atom  115 type  2   force =    -0.01161627   -0.01005664   -0.00867888
     atom  116 type  1   force =    -0.04724380    0.00905437    0.01058837
     atom  117 type  1   force =     0.04851018    0.00186892   -0.00531128
     atom  118 type  2   force =    -0.01701270    0.02176338   -0.02599009
     atom  119 type  1   force =     0.03699413   -0.01793504    0.04333608
     atom  120 type  1   force =    -0.01974420   -0.00034709   -0.02232096
     atom  121 type  2   force =     0.03485236   -0.00157214    0.00718957
     atom  122 type  1   force =    -0.03149298   -0.03950918   -0.03058821
     atom  123 type  1   force =    -0.00898706    0.03850807    0.02504239
     atom  124 type  2   force =    -0.00823686   -0.00152792   -0.03433752
     atom  125 type  1   force =    -0.01861999   -0.02521219    0.03254584
     atom  126 type  1   force =     0.03767892    0.02231815   -0.00920510
     atom  127 type  2   force =    -0.00859629   -0.03565811    0.00541293
     atom  128 type  1   force =    -0.04621862    0.03322386    0.01213854
     atom  129 type  1   force =     0.05481717   -0.00019433   -0.01385029
     atom  130 type  2   force =     0.03063985   -0.01797937    0.02265377
     atom  131 type  1   force =     0.01994435    0.01298142    0.00857210
     atom  132 type  1   force =    -0.05096436    0.01029574   -0.03450640
     atom  133 type  2   force =     0.00041795   -0.01244867   -0.00561656
     atom  134 type  1   force =     0.03878216   -0.01328636    0.02579065
     atom  135 type  1   force =    -0.02392952    0.00470457   -0.03010341
     atom  136 type  2   force =    -0.00310082    0.00392242    0.02067555
     atom  137 type  1   force =     0.01464612   -0.03881830   -0.01148243
     atom  138 type  1   force =    -0.02197780    0.05446198   -0.00670660
     atom  139 type  2   force =     0.02153295    0.01166810    0.03582686
     atom  140 type  1   force =    -0.00829149    0.01302034   -0.04567751
     atom  141 type  1   force =     0.00195942   -0.01122759    0.03398401
     The non-local contrib.  to forces
     atom    1 type  2   force =     1.93236375   -0.13326742    0.02416575
     atom    2 type  1   force =    -0.06201140   -0.03452797   -0.06706282
     atom    3 type  1   force =    -0.04390047    0.05154921    0.06909340
     atom    4 type  2   force =     0.75497902   -1.30730599    1.62988139
     atom    5 type  1   force =    -0.08914209   -0.00470007   -0.03831772
     atom    6 type  1   force =     0.05656029    0.07037336   -0.03788332
     atom    7 type  2   force =    -0.52342977   -1.10237822   -1.36563181
     atom    8 type  1   force =    -0.02610778   -0.00499111    0.09414592
     atom    9 type  1   force =     0.06804029    0.06705518   -0.01724411
     atom   10 type  2   force =     2.00934168   -0.06818583    0.41710226
     atom   11 type  1   force =    -0.03375924    0.05967002   -0.06974684
     atom   12 type  1   force =    -0.06874661   -0.05488860    0.04235868
     atom   13 type  2   force =     0.18179014    0.89410541    1.66823128
     atom   14 type  1   force =    -0.08403004   -0.01228408   -0.04736176
     atom   15 type  1   force =     0.07410002   -0.04221012   -0.04314822
     atom   16 type  2   force =    -1.84310840   -0.31582614    0.02261607
     atom   17 type  1   force =     0.04524097    0.08532085    0.01722677
     atom   18 type  1   force =     0.06223048   -0.07373867   -0.01852898
     atom   19 type  2   force =     0.95252329    1.69979534   -0.35702860
     atom   20 type  1   force =    -0.09656586   -0.00908609   -0.01652066
     atom   21 type  1   force =     0.04019335   -0.07903992    0.04295981
     atom   22 type  2   force =    -1.17848146   -0.52171498   -1.35481921
     atom   23 type  1   force =     0.00661782   -0.04714182    0.08507781
     atom   24 type  1   force =     0.06026658    0.07385736   -0.00631657
     atom   25 type  2   force =    -1.24995830    0.73996993   -0.98418354
     atom   26 type  1   force =     0.08834153   -0.03548402   -0.02706334
     atom   27 type  1   force =    -0.01450737   -0.00534329    0.09516949
     atom   28 type  2   force =     0.80495774    0.08982680    1.60098947
     atom   29 type  1   force =     0.03586873   -0.02190345   -0.08897989
     atom   30 type  1   force =    -0.09239726    0.02515562   -0.00261275
     atom   31 type  2   force =    -0.82978848    0.59104949   -1.87882064
     atom   32 type  1   force =     0.09659443    0.00293770    0.01818885
     atom   33 type  1   force =    -0.05436007   -0.03071220    0.07656148
     atom   34 type  2   force =     0.30024600    1.45824119   -1.32370596
     atom   35 type  1   force =     0.07008370   -0.05758210    0.03426145
     atom   36 type  1   force =    -0.08552554   -0.01751255    0.03701695
     atom   37 type  2   force =    -0.09093948    0.71499372    1.79206291
     atom   38 type  1   force =    -0.06999546    0.00534847   -0.06969721
     atom   39 type  1   force =     0.08215229   -0.04639220   -0.03121550
     atom   40 type  2   force =     1.00108768   -0.66012923    1.81049652
     atom   41 type  1   force =    -0.09688188   -0.00803606   -0.01272839
     atom   42 type  1   force =     0.04644344    0.03673734   -0.07723044
     atom   43 type  2   force =    -0.78128248    1.49746459   -0.59717057
     atom   44 type  1   force =    -0.01537245   -0.08194990   -0.04609376
     atom   45 type  1   force =     0.06116560   -0.00898606    0.07484459
     atom   46 type  2   force =     0.50040654    2.00403135    0.31915931
     atom   47 type  1   force =     0.06213823   -0.06959044    0.02846451
     atom   48 type  1   force =    -0.08296727   -0.03407494   -0.03969902
     atom   49 type  2   force =    -1.97765297   -0.46666141    0.70971379
     atom   50 type  1   force =     0.07441152    0.03588690    0.05225219
     atom   51 type  1   force =     0.01848203   -0.00755428   -0.09471295
     atom   52 type  2   force =    -0.85063644   -1.10236443   -1.08970339
     atom   53 type  1   force =     0.08622474   -0.02437146    0.03803656
     atom   54 type  1   force =    -0.02512297    0.09225630    0.01861107
     atom   55 type  2   force =     0.38217600    0.22582197   -1.62382306
     atom   56 type  1   force =     0.03267881   -0.07430026    0.05154574
     atom   57 type  1   force =    -0.04560186    0.06639502    0.05556437
     atom   58 type  2   force =     1.41401713    0.08657976    0.96945482
     atom   59 type  1   force =    -0.09069281    0.01730094    0.02858990
     atom   60 type  1   force =     0.00517581   -0.03137508   -0.09028284
     atom   61 type  2   force =    -1.61159843   -0.42823672    0.73985776
     atom   62 type  1   force =     0.00437584    0.05440893   -0.07841519
     atom   63 type  1   force =     0.08770475   -0.02589795    0.03395615
     atom   64 type  2   force =     0.30133602    2.01162049    0.92186996
     atom   65 type  1   force =     0.01355849   -0.01591558   -0.09492467
     atom   66 type  1   force =    -0.03002185   -0.07831144    0.05030759
     atom   67 type  2   force =     0.44620344   -1.78424514    0.62841866
     atom   68 type  1   force =    -0.00738300    0.07287132    0.06587559
     atom   69 type  1   force =    -0.01833173    0.02929036   -0.09265749
     atom   70 type  2   force =    -0.94236680    0.84405254   -1.48087528
     atom   71 type  1   force =     0.01332848   -0.09592779    0.01212182
     atom   72 type  1   force =     0.03484375    0.05297239    0.07201288
     atom   73 type  2   force =    -1.38779268    1.07819169    0.63485016
     atom   74 type  1   force =     0.06534374    0.04162964   -0.06117543
     atom   75 type  1   force =     0.01951609   -0.09520943    0.01745967
     atom   76 type  2   force =     1.83890378    0.89391345    0.95480475
     atom   77 type  1   force =    -0.06644724   -0.05254446    0.04666474
     atom   78 type  1   force =    -0.01336834    0.00553569   -0.09682865
     atom   79 type  2   force =    -1.39761949    0.67717173    1.38323777
     atom   80 type  1   force =     0.09206071    0.02973860   -0.01295894
     atom   81 type  1   force =    -0.02876293   -0.06754386   -0.06302473
     atom   82 type  2   force =    -0.03902038   -2.16591034    0.18718923
     atom   83 type  1   force =    -0.01665931    0.06420870    0.07149692
     atom   84 type  1   force =     0.00443078    0.04006077   -0.08971651
     atom   85 type  2   force =     0.90022098    1.20551789   -0.97109305
     atom   86 type  1   force =     0.03258858   -0.04664002    0.08127021
     atom   87 type  1   force =    -0.08659590   -0.03364286   -0.02949344
     atom   88 type  2   force =     1.91979599    1.23240152    0.18083349
     atom   89 type  1   force =    -0.08950889    0.04086901    0.00453076
     atom   90 type  1   force =     0.00034210   -0.09762190   -0.00774992
     atom   91 type  2   force =     1.14134449   -1.64844067    1.01968108
     atom   92 type  1   force =    -0.03445602    0.07849513    0.04757073
     atom   93 type  1   force =    -0.02570432   -0.00438011   -0.09516154
     atom   94 type  2   force =     2.21500097   -0.21033270    0.01659765
     atom   95 type  1   force =    -0.05865213   -0.04504795   -0.06461240
     atom   96 type  1   force =    -0.04825550    0.04946506    0.06882759
     atom   97 type  2   force =     2.09870694    0.00300642   -0.52373022
     atom   98 type  1   force =    -0.03827423   -0.05431107    0.07118452
     atom   99 type  1   force =    -0.06474937    0.05837712   -0.04528911
     atom  100 type  2   force =     0.49200020    2.05084209   -0.80523864
     atom  101 type  1   force =    -0.09094216   -0.03708003   -0.00413754
     atom  102 type  1   force =     0.06625258   -0.05959720    0.03925522
     atom  103 type  2   force =     0.63137630   -0.59432928   -1.79620123
     atom  104 type  1   force =     0.06046964    0.03594061    0.06907758
     atom  105 type  1   force =    -0.09276682   -0.00072961    0.02842332
     atom  106 type  2   force =    -1.44418785   -0.41700797   -1.58279344
     atom  107 type  1   force =     0.04123778   -0.07090407    0.05421190
     atom  108 type  1   force =     0.03165397    0.09045322    0.02127550
     atom  109 type  2   force =    -0.75608470    0.79261812    1.50440898
     atom  110 type  1   force =    -0.03318950   -0.08058498   -0.04478278
     atom  111 type  1   force =     0.07933698    0.03864589   -0.04366108
     atom  112 type  2   force =     1.80010024    1.19441286    0.51971651
     atom  113 type  1   force =     0.01382969   -0.09320124   -0.02451772
     atom  114 type  1   force =    -0.09179841    0.02755240    0.00277562
     atom  115 type  2   force =    -0.60833000    0.33573429   -2.02891593
     atom  116 type  1   force =    -0.06496999   -0.01458857    0.07188317
     atom  117 type  1   force =     0.09280282   -0.00581339    0.02943802
     atom  118 type  2   force =    -0.03745520    2.22858990   -0.35034002
     atom  119 type  1   force =     0.05108792   -0.04689776    0.06648129
     atom  120 type  1   force =    -0.05381239   -0.05719328   -0.05792059
     atom  121 type  2   force =     2.15685424   -0.68459901    0.49069671
     atom  122 type  1   force =    -0.06388430   -0.05327421   -0.04979392
     atom  123 type  1   force =    -0.03199592    0.08760984    0.02802197
     atom  124 type  2   force =    -0.21356675   -1.01991398   -1.85195933
     atom  125 type  1   force =    -0.04602298   -0.02585154    0.08256724
     atom  126 type  1   force =     0.04543674    0.08772986    0.00500415
     atom  127 type  2   force =    -0.59513250   -2.21153657    0.18491160
     atom  128 type  1   force =    -0.06493299    0.07265207    0.00901269
     atom  129 type  1   force =     0.09027971    0.02895142   -0.02534651
     atom  130 type  2   force =    -0.12982516   -1.08739346    1.66529799
     atom  131 type  1   force =     0.08479573    0.03730363   -0.02297271
     atom  132 type  1   force =    -0.06939548    0.02013912   -0.06432107
     atom  133 type  2   force =    -1.43539811   -0.83523585    1.18451064
     atom  134 type  1   force =     0.09402247    0.00334766    0.02371197
     atom  135 type  1   force =    -0.01898918    0.02989705   -0.09172102
     atom  136 type  2   force =     1.39482592    0.43574657   -1.28497496
     atom  137 type  1   force =    -0.02102665   -0.09091542    0.02902158
     atom  138 type  1   force =    -0.05350491    0.06828757    0.04674965
     atom  139 type  2   force =    -1.63893360    0.10500197    0.60814831
     atom  140 type  1   force =     0.03185427    0.01705705   -0.09138473
     atom  141 type  1   force =     0.07219663   -0.01775918    0.06038666
     The ionic contribution  to forces
     atom    1 type  2   force =     0.16515149    9.38021617   10.37337736
     atom    2 type  1   force =     2.84765973    2.57688116    3.64789255
     atom    3 type  1   force =     1.65386169   -0.05163776   -0.37548746
     atom    4 type  2   force =     5.23300279   10.79284487  -11.50942008
     atom    5 type  1   force =     4.26153897    1.69264279    0.02136723
     atom    6 type  1   force =    -0.84690097   -0.62119760   -0.75707394
     atom    7 type  2   force =    -8.35984047   10.47647988    2.52102049
     atom    8 type  1   force =    -0.64938289    1.28110444   -3.03543958
     atom    9 type  1   force =    -3.55852484   -0.41229617    0.47038249
     atom   10 type  2   force =     1.00480614   11.22884967   -5.45362840
     atom   11 type  1   force =     1.61919765    0.01492038    1.15836551
     atom   12 type  1   force =     3.29512283    3.36009520   -2.25257973
     atom   13 type  2   force =     1.85600015    1.10437043  -15.04316712
     atom   14 type  1   force =     2.76948356    0.77463163   -0.77375133
     atom   15 type  1   force =    -1.90067194    1.87639348   -0.71786366
     atom   16 type  2   force =     1.69712973    1.85514299    0.40293001
     atom   17 type  1   force =    -1.54404303   -2.37850735   -0.33992346
     atom   18 type  1   force =    -2.50172455    2.42457551    0.92608966
     atom   19 type  2   force =    -7.23212974   -7.43613753   -6.93826148
     atom   20 type  1   force =     2.33342527   -0.29213924   -0.48063505
     atom   21 type  1   force =    -2.44617458    1.61507710   -2.77857958
     atom   22 type  2   force =     3.96437220    1.21393489   11.95641330
     atom   23 type  1   force =     0.30859452    1.66098321   -1.11038974
     atom   24 type  1   force =    -1.41540318   -2.22683800    1.79989412
     atom   25 type  2   force =    -3.52534658   -3.89183917    0.49069722
     atom   26 type  1   force =    -3.86438960    0.79453070    0.67860259
     atom   27 type  1   force =    -0.62368609   -0.37884751   -3.14663828
     atom   28 type  2   force =   -11.53824244   -0.30701252   10.17328218
     atom   29 type  1   force =    -2.88925612    0.69311639    4.97946863
     atom   30 type  1   force =     1.05807263   -0.79075810    1.95176863
     atom   31 type  2   force =    -7.85215753    3.44580997   -6.87934436
     atom   32 type  1   force =    -4.66033151    0.51810847   -1.94285056
     atom   33 type  1   force =     0.63478128    1.83402119   -3.95634049
     atom   34 type  2   force =    -8.59210140  -12.62245096   12.56351995
     atom   35 type  1   force =    -3.62333423   -0.07441898    0.26972308
     atom   36 type  1   force =     1.24687971   -1.39951284    0.44940125
     atom   37 type  2   force =     9.27312478  -12.41699708    3.02040228
     atom   38 type  1   force =     3.96855509   -1.86446135    3.46553502
     atom   39 type  1   force =    -1.37389800   -0.55021671    1.78287774
     atom   40 type  2   force =    -9.37082552   10.38557226    5.61298687
     atom   41 type  1   force =     2.09642819    2.14381527    1.78514318
     atom   42 type  1   force =    -2.89383884    0.15217222    3.91354781
     atom   43 type  2   force =    -3.73641191    2.44856833   -6.18331008
     atom   44 type  1   force =    -0.21443210    3.07115737    0.13701440
     atom   45 type  1   force =    -2.65818644    1.04914335   -3.51771491
     atom   46 type  2   force =    11.45608663    6.29158282    3.28660730
     atom   47 type  1   force =     0.43388335    4.04623566   -0.37812660
     atom   48 type  1   force =     4.42300088    2.64499257    2.10122751
     atom   49 type  2   force =    13.60156654   -8.84816737   -8.27561954
     atom   50 type  1   force =    -1.02798784   -2.83424050   -3.27657136
     atom   51 type  1   force =     1.37839322   -1.56565449    1.93839812
     atom   52 type  2   force =     9.06785383   -2.30766423    1.67796258
     atom   53 type  1   force =    -1.54832751    0.32818759   -1.05806921
     atom   54 type  1   force =     2.34626706   -3.56972323   -0.83303977
     atom   55 type  2   force =    -0.56958745  -10.24171922    7.12782216
     atom   56 type  1   force =    -1.08921158    0.73216518   -1.31911051
     atom   57 type  1   force =     1.65928587   -3.52243001   -0.89921310
     atom   58 type  2   force =     3.56251830    4.99766388   -9.77207467
     atom   59 type  1   force =     3.70960979    0.05686823   -2.29341472
     atom   60 type  1   force =     1.13322517    2.02499143    1.40215247
     atom   61 type  2   force =    -6.87137330    6.33510711    3.46945817
     atom   62 type  1   force =    -1.90319792   -0.42277354    3.41794776
     atom   63 type  1   force =    -3.93361267    1.78616071   -0.13518520
     atom   64 type  2   force =    -9.66959916  -11.39985661   -8.60964812
     atom   65 type  1   force =    -2.12228924   -0.72520542    1.97511909
     atom   66 type  1   force =    -0.59183739    1.13948196   -2.95132410
     atom   67 type  2   force =    -3.84384033   -3.42368642   11.50797883
     atom   68 type  1   force =    -0.17997230   -3.32038133    0.20077800
     atom   69 type  1   force =     0.11239505   -2.29266073    5.24615085
     atom   70 type  2   force =    12.85365788   -0.61005083    9.05632940
     atom   71 type  1   force =     1.30100491    3.22823453    0.33796676
     atom   72 type  1   force =     0.52968674   -1.24233859   -0.95082388
     atom   73 type  2   force =     9.29211845   11.35293291    2.10355234
     atom   74 type  1   force =    -0.81592703    0.77111672    2.81933293
     atom   75 type  1   force =     0.49372982    5.26539435    0.13703340
     atom   76 type  2   force =   -11.16923805  -10.54156879   -2.90908612
     atom   77 type  1   force =     0.60007315    0.10168697   -1.98272633
     atom   78 type  1   force =    -0.62939204   -2.04637756    3.61699878
     atom   79 type  2   force =   -10.16335161   -6.48034985    2.20357488
     atom   80 type  1   force =    -4.81880002   -1.94153665    1.37393036
     atom   81 type  1   force =    -1.50961009    1.33380652    2.82371940
     atom   82 type  2   force =    10.31006805    7.03930558   -9.77087745
     atom   83 type  1   force =     2.10332663   -2.13532565   -4.14431703
     atom   84 type  1   force =     1.36553034   -0.62155899    1.26755478
     atom   85 type  2   force =    -7.15130614    7.95973773   -4.82066005
     atom   86 type  1   force =    -2.31596232    3.04501839   -3.63830252
     atom   87 type  1   force =     2.00934027    2.43148611   -0.17582477
     atom   88 type  2   force =    -4.41435121    5.48136487   -8.67635460
     atom   89 type  1   force =     3.27148007   -0.10134768   -1.58357512
     atom   90 type  1   force =    -0.19655954    4.28488872   -0.92298043
     atom   91 type  2   force =     1.39140564   -8.23548157   -6.18331429
     atom   92 type  1   force =     1.79872172   -4.18664860   -2.41927836
     atom   93 type  1   force =     1.45519764   -1.94688488    3.12262312
     atom   94 type  2   force =    -8.53791086    0.96387041    9.91839511
     atom   95 type  1   force =     1.56749457    1.67895108    3.53604067
     atom   96 type  1   force =     0.98042744   -1.58595418   -0.02636156
     atom   97 type  2   force =     3.92364952   -6.20730930  -12.55172226
     atom   98 type  1   force =     2.56534308    0.99518815   -4.49986665
     atom   99 type  1   force =     3.47946694   -2.70819515   -0.70490507
     atom  100 type  2   force =   -10.53998554   -1.41647885   -6.53831737
     atom  101 type  1   force =     1.11343658    1.67547542   -0.87686953
     atom  102 type  1   force =    -3.66283732    2.53644832   -2.64384271
     atom  103 type  2   force =    -1.97928868   -9.51202349    0.01188429
     atom  104 type  1   force =    -2.41492065   -2.76645721   -3.29978865
     atom  105 type  1   force =     2.56548298   -1.57731132   -1.15655814
     atom  106 type  2   force =    -5.01362384    7.23477230    3.11286436
     atom  107 type  1   force =    -2.10110049    3.67765889   -2.04135186
     atom  108 type  1   force =    -1.99217689   -2.43917694   -0.66551085
     atom  109 type  2   force =     6.59174848    4.46908052   -4.00564071
     atom  110 type  1   force =     2.25434340    3.36714385    0.92272047
     atom  111 type  1   force =    -1.61118659   -0.59333038    1.09968588
     atom  112 type  2   force =    -6.86941729  -12.36452266  -10.82513429
     atom  113 type  1   force =    -1.15822943    0.96030107   -1.06017389
     atom  114 type  1   force =     2.94241235   -2.53673273   -1.82203407
     atom  115 type  2   force =    10.63332445   -5.33717916   15.40536399
     atom  116 type  1   force =     3.87420502   -0.42054911   -0.20898002
     atom  117 type  1   force =    -1.54307339   -0.60989225    1.01538849
     atom  118 type  2   force =    -2.59578833   -9.10677981   -9.38058001
     atom  119 type  1   force =    -2.36332163    0.99704239   -3.30544588
     atom  120 type  1   force =     1.48686709    0.87649642   -0.43043389
     atom  121 type  2   force =   -10.73610922    7.96804027    1.73202308
     atom  122 type  1   force =     1.44094418    2.66708760    2.39982388
     atom  123 type  1   force =    -0.30441218   -0.83419782   -0.56682150
     atom  124 type  2   force =    10.11875423    7.33458837   12.95409913
     atom  125 type  1   force =     2.91105017    1.91452899   -0.90905955
     atom  126 type  1   force =    -0.06578963   -2.05860277    1.68194991
     atom  127 type  2   force =     5.20110748   -6.76410261   10.49552553
     atom  128 type  1   force =     3.04934644   -4.05164049    1.14792093
     atom  129 type  1   force =    -2.72339357   -2.67254694    2.56658064
     atom  130 type  2   force =    10.91662055    0.53644947   -4.05124447
     atom  131 type  1   force =    -0.15036049   -1.52077460    0.47153074
     atom  132 type  1   force =     3.42507421   -1.10999789    2.29257068
     atom  133 type  2   force =     7.06610359   -5.84170630    3.38203202
     atom  134 type  1   force =    -2.08763718   -1.07721585   -0.03376226
     atom  135 type  1   force =     1.54322796   -2.16083765    3.94044865
     atom  136 type  2   force =    -1.14352640   -6.20401773   -2.53676236
     atom  137 type  1   force =     0.90411489    2.25889329   -1.76974040
     atom  138 type  1   force =     1.78400146   -3.39117931   -2.41976597
     atom  139 type  2   force =     2.28546893   10.86558319    5.59948955
     atom  140 type  1   force =    -1.28150530    0.96664297    3.86879710
     atom  141 type  1   force =    -2.28846724    2.65980126   -0.81846656
     The local contribution  to forces
     atom    1 type  2   force =    -2.08146183   -9.22766978  -10.37144564
     atom    2 type  1   force =    -2.81179706   -2.56865164   -3.63094953
     atom    3 type  1   force =    -1.58468080    0.01786696    0.34015026
     atom    4 type  2   force =    -5.96314140   -9.50061777    9.91036927
     atom    5 type  1   force =    -4.22957252   -1.70678382    0.00246816
     atom    6 type  1   force =     0.82923834    0.57947549    0.79559824
     atom    7 type  2   force =     8.87340151   -9.38919487   -1.21300848
     atom    8 type  1   force =     0.65347412   -1.27216595    2.96585742
     atom    9 type  1   force =     3.50359890    0.35267307   -0.44064900
     atom   10 type  2   force =    -2.96350646  -11.14533435    5.04021167
     atom   11 type  1   force =    -1.58160215   -0.05620585   -1.11862311
     atom   12 type  1   force =    -3.26184273   -3.34679551    2.23306703
     atom   13 type  2   force =    -2.02081725   -1.98424468   13.39770539
     atom   14 type  1   force =    -2.72243337   -0.75354644    0.80635834
     atom   15 type  1   force =     1.85779391   -1.83689712    0.76198989
     atom   16 type  2   force =     0.11503649   -1.56307886   -0.43246005
     atom   17 type  1   force =     1.49923653    2.32516879    0.32135347
     atom   18 type  1   force =     2.46168352   -2.38153950   -0.92037149
     atom   19 type  2   force =     6.28115641    5.77204210    7.30272024
     atom   20 type  1   force =    -2.26143275    0.30212711    0.48257390
     atom   21 type  1   force =     2.44371332   -1.56508692    2.75684930
     atom   22 type  2   force =    -2.78843109   -0.69634183  -10.60246658
     atom   23 type  1   force =    -0.33408724   -1.64446360    1.04491953
     atom   24 type  1   force =     1.37454628    2.18226182   -1.82035051
     atom   25 type  2   force =     4.74410108    3.18790736    0.50149314
     atom   26 type  1   force =     3.81375455   -0.77479059   -0.67236802
     atom   27 type  1   force =     0.63374320    0.37472725    3.05155055
     atom   28 type  2   force =    10.71359343    0.24071751  -11.71533298
     atom   29 type  1   force =     2.88251512   -0.68438327   -4.93652392
     atom   30 type  1   force =    -0.97629001    0.76066850   -1.93332805
     atom   31 type  2   force =     8.65824939   -4.01590291    8.69561359
     atom   32 type  1   force =     4.62105501   -0.51839589    1.92567239
     atom   33 type  1   force =    -0.62149234   -1.81828006    3.91225108
     atom   34 type  2   force =     8.28939920   11.19186800  -11.23639009
     atom   35 type  1   force =     3.59174332    0.11146460   -0.30068166
     atom   36 type  1   force =    -1.20244247    1.41819840   -0.48461121
     atom   37 type  2   force =    -9.16962923   11.69503215   -4.75662834
     atom   38 type  1   force =    -3.94324265    1.86749893   -3.42436876
     atom   39 type  1   force =     1.31089617    0.60054059   -1.73132424
     atom   40 type  2   force =     8.37732329   -9.73244922   -7.39042010
     atom   41 type  1   force =    -2.03282837   -2.14363217   -1.73669966
     atom   42 type  1   force =     2.89139894   -0.17752856   -3.88093456
     atom   43 type  2   force =     4.48856110   -3.94327933    6.75899812
     atom   44 type  1   force =     0.22468203   -2.98908000   -0.10605446
     atom   45 type  1   force =     2.60479480   -1.02831556    3.47068696
     atom   46 type  2   force =   -11.92321492   -8.24292079   -3.58689870
     atom   47 type  1   force =    -0.47700935   -3.99729754    0.36803632
     atom   48 type  1   force =    -4.38641209   -2.62697247   -2.08471576
     atom   49 type  2   force =   -11.66147313    9.30898612    7.54463243
     atom   50 type  1   force =     0.98789200    2.81570439    3.27137594
     atom   51 type  1   force =    -1.40808486    1.56329171   -1.88162376
     atom   52 type  2   force =    -8.22237860    3.38122476   -0.62668266
     atom   53 type  1   force =     1.47881850   -0.32972258    1.01878332
     atom   54 type  1   force =    -2.34613659    3.51466049    0.82638432
     atom   55 type  2   force =     0.23062508   10.02981611   -5.51409005
     atom   56 type  1   force =     1.04367949   -0.66979962    1.25056977
     atom   57 type  1   force =    -1.65220742    3.47336022    0.84725613
     atom   58 type  2   force =    -4.95546994   -5.09519308    8.80206445
     atom   59 type  1   force =    -3.63040910   -0.06754949    2.27859473
     atom   60 type  1   force =    -1.14279292   -1.99145328   -1.31832774
     atom   61 type  2   force =     8.44366846   -5.90832278   -4.21538282
     atom   62 type  1   force =     1.90458583    0.38948032   -3.35430858
     atom   63 type  1   force =     3.86918614   -1.77303326    0.11353238
     atom   64 type  2   force =     9.37265448    9.43137495    7.70131151
     atom   65 type  1   force =     2.12769963    0.74804897   -1.92814828
     atom   66 type  1   force =     0.59952863   -1.09115806    2.93948889
     atom   67 type  2   force =     3.41223737    5.16708162  -12.09572626
     atom   68 type  1   force =     0.19078634    3.25043711   -0.24667194
     atom   69 type  1   force =    -0.10953509    2.26569424   -5.20232448
     atom   70 type  2   force =   -11.92574886   -0.19945943   -7.59702776
     atom   71 type  1   force =    -1.30216066   -3.17868825   -0.35011905
     atom   72 type  1   force =    -0.55615405    1.21148199    0.90828348
     atom   73 type  2   force =    -7.91390522  -12.37904344   -2.74309913
     atom   74 type  1   force =     0.72927288   -0.79027319   -2.76635262
     atom   75 type  1   force =    -0.51193569   -5.21772398   -0.12653469
     atom   76 type  2   force =     9.37418079    9.65221021    1.95715750
     atom   77 type  1   force =    -0.57845956   -0.07212728    1.98995955
     atom   78 type  1   force =     0.64137796    2.06638152   -3.57165118
     atom   79 type  2   force =    11.49382158    5.80355570   -3.56644571
     atom   80 type  1   force =     4.77715335    1.93251320   -1.36019386
     atom   81 type  1   force =     1.52924136   -1.29173334   -2.76246441
     atom   82 type  2   force =   -10.29046082   -4.92130065    9.56206407
     atom   83 type  1   force =    -2.09036167    2.09930953    4.12370807
     atom   84 type  1   force =    -1.33338353    0.58042897   -1.20834259
     atom   85 type  2   force =     6.25462865   -9.14974344    5.76545905
     atom   86 type  1   force =     2.31320293   -3.00706769    3.59461010
     atom   87 type  1   force =    -1.93834674   -2.38787763    0.17986086
[...]
     atom   72 type  1   force =     0.00000000    0.00000000    0.00000000
     atom   73 type  2   force =     0.00000000    0.00000000    0.00000000
     atom   74 type  1   force =     0.00000000    0.00000000    0.00000000
     atom   75 type  1   force =     0.00000000    0.00000000    0.00000000
     atom   76 type  2   force =     0.00000000    0.00000000    0.00000000
     atom   77 type  1   force =     0.00000000    0.00000000    0.00000000
     atom   78 type  1   force =     0.00000000    0.00000000    0.00000000
     atom   79 type  2   force =     0.00000000    0.00000000    0.00000000
     atom   80 type  1   force =     0.00000000    0.00000000    0.00000000
     atom   81 type  1   force =     0.00000000    0.00000000    0.00000000
     atom   82 type  2   force =     0.00000000    0.00000000    0.00000000
     atom   83 type  1   force =     0.00000000    0.00000000    0.00000000
     atom   84 type  1   force =     0.00000000    0.00000000    0.00000000
     atom   85 type  2   force =     0.00000000    0.00000000    0.00000000
     atom   86 type  1   force =     0.00000000    0.00000000    0.00000000
     atom   87 type  1   force =     0.00000000    0.00000000    0.00000000
     atom   88 type  2   force =     0.00000000    0.00000000    0.00000000
     atom   89 type  1   force =     0.00000000    0.00000000    0.00000000
     atom   90 type  1   force =     0.00000000    0.00000000    0.00000000
     atom   91 type  2   force =     0.00000000    0.00000000    0.00000000
     atom   92 type  1   force =     0.00000000    0.00000000    0.00000000
     atom   93 type  1   force =     0.00000000    0.00000000    0.00000000
     atom   94 type  2   force =     0.00000000    0.00000000    0.00000000
     atom   95 type  1   force =     0.00000000    0.00000000    0.00000000
     atom   96 type  1   force =     0.00000000    0.00000000    0.00000000
     atom   97 type  2   force =     0.00000000    0.00000000    0.00000000
     atom   98 type  1   force =     0.00000000    0.00000000    0.00000000
     atom   99 type  1   force =     0.00000000    0.00000000    0.00000000
     atom  100 type  2   force =     0.00000000    0.00000000    0.00000000
     atom  101 type  1   force =     0.00000000    0.00000000    0.00000000
     atom  102 type  1   force =     0.00000000    0.00000000    0.00000000
     atom  103 type  2   force =     0.00000000    0.00000000    0.00000000
     atom  104 type  1   force =     0.00000000    0.00000000    0.00000000
     atom  105 type  1   force =     0.00000000    0.00000000    0.00000000
     atom  106 type  2   force =     0.00000000    0.00000000    0.00000000
     atom  107 type  1   force =     0.00000000    0.00000000    0.00000000
     atom  108 type  1   force =     0.00000000    0.00000000    0.00000000
     atom  109 type  2   force =     0.00000000    0.00000000    0.00000000
     atom  110 type  1   force =     0.00000000    0.00000000    0.00000000
     atom  111 type  1   force =     0.00000000    0.00000000    0.00000000
     atom  112 type  2   force =     0.00000000    0.00000000    0.00000000
     atom  113 type  1   force =     0.00000000    0.00000000    0.00000000
     atom  114 type  1   force =     0.00000000    0.00000000    0.00000000
     atom  115 type  2   force =     0.00000000    0.00000000    0.00000000
     atom  116 type  1   force =     0.00000000    0.00000000    0.00000000
     atom  117 type  1   force =     0.00000000    0.00000000    0.00000000
     atom  118 type  2   force =     0.00000000    0.00000000    0.00000000
     atom  119 type  1   force =     0.00000000    0.00000000    0.00000000
     atom  120 type  1   force =     0.00000000    0.00000000    0.00000000
     atom  121 type  2   force =     0.00000000    0.00000000    0.00000000
     atom  122 type  1   force =     0.00000000    0.00000000    0.00000000
     atom  123 type  1   force =     0.00000000    0.00000000    0.00000000
     atom  124 type  2   force =     0.00000000    0.00000000    0.00000000
     atom  125 type  1   force =     0.00000000    0.00000000    0.00000000
     atom  126 type  1   force =     0.00000000    0.00000000    0.00000000
     atom  127 type  2   force =     0.00000000    0.00000000    0.00000000
     atom  128 type  1   force =     0.00000000    0.00000000    0.00000000
     atom  129 type  1   force =     0.00000000    0.00000000    0.00000000
     atom  130 type  2   force =     0.00000000    0.00000000    0.00000000
     atom  131 type  1   force =     0.00000000    0.00000000    0.00000000
     atom  132 type  1   force =     0.00000000    0.00000000    0.00000000
     atom  133 type  2   force =     0.00000000    0.00000000    0.00000000
     atom  134 type  1   force =     0.00000000    0.00000000    0.00000000
     atom  135 type  1   force =     0.00000000    0.00000000    0.00000000
     atom  136 type  2   force =     0.00000000    0.00000000    0.00000000
     atom  137 type  1   force =     0.00000000    0.00000000    0.00000000
     atom  138 type  1   force =     0.00000000    0.00000000    0.00000000
     atom  139 type  2   force =     0.00000000    0.00000000    0.00000000
     atom  140 type  1   force =     0.00000000    0.00000000    0.00000000
     atom  141 type  1   force =     0.00000000    0.00000000    0.00000000
     The SCF correction term to forces
     atom    1 type  2   force =     0.00000009    0.00000010    0.00000009
     atom    2 type  1   force =     0.00000002    0.00000003    0.00000004
     atom    3 type  1   force =    -0.00000005    0.00000003   -0.00000001
     atom    4 type  2   force =     0.00000012   -0.00000019    0.00000031
     atom    5 type  1   force =     0.00000009   -0.00000000    0.00000006
     atom    6 type  1   force =    -0.00000003   -0.00000006    0.00000004
     atom    7 type  2   force =     0.00000005   -0.00000004   -0.00000020
     atom    8 type  1   force =    -0.00000000   -0.00000001   -0.00000002
     atom    9 type  1   force =    -0.00000001   -0.00000001   -0.00000003
     atom   10 type  2   force =     0.00000047    0.00000008    0.00000013
     atom   11 type  1   force =     0.00000006    0.00000000    0.00000004
     atom   12 type  1   force =     0.00000008    0.00000005   -0.00000001
     atom   13 type  2   force =     0.00000003    0.00000030    0.00000032
     atom   14 type  1   force =     0.00000005    0.00000002    0.00000003
     atom   15 type  1   force =    -0.00000004    0.00000005    0.00000003
     atom   16 type  2   force =    -0.00000025   -0.00000005    0.00000006
     atom   17 type  1   force =    -0.00000004   -0.00000005   -0.00000000
     atom   18 type  1   force =    -0.00000007    0.00000004    0.00000001
     atom   19 type  2   force =     0.00000003    0.00000047    0.00000000
     atom   20 type  1   force =     0.00000012    0.00000006    0.00000002
     atom   21 type  1   force =    -0.00000007    0.00000014   -0.00000006
     atom   22 type  2   force =    -0.00000023   -0.00000013   -0.00000017
     atom   23 type  1   force =    -0.00000001    0.00000007   -0.00000012
     atom   24 type  1   force =    -0.00000009   -0.00000011    0.00000002
     atom   25 type  2   force =    -0.00000026    0.00000033   -0.00000018
     atom   26 type  1   force =    -0.00000010    0.00000007    0.00000001
     atom   27 type  1   force =    -0.00000001    0.00000005   -0.00000008
     atom   28 type  2   force =    -0.00000022    0.00000014    0.00000047
     atom   29 type  1   force =    -0.00000006    0.00000003    0.00000014
     atom   30 type  1   force =     0.00000009   -0.00000002    0.00000005
     atom   31 type  2   force =     0.00000006    0.00000008   -0.00000006
     atom   32 type  1   force =    -0.00000002    0.00000001   -0.00000001
     atom   33 type  1   force =     0.00000000    0.00000001   -0.00000001
     atom   34 type  2   force =     0.00000015    0.00000020   -0.00000012
     atom   35 type  1   force =    -0.00000003    0.00000002   -0.00000000
     atom   36 type  1   force =     0.00000005    0.00000001   -0.00000001
     atom   37 type  2   force =     0.00000006    0.00000000    0.00000002
     atom   38 type  1   force =     0.00000004   -0.00000001    0.00000004
     atom   39 type  1   force =    -0.00000001   -0.00000002    0.00000000
     atom   40 type  2   force =     0.00000024   -0.00000013    0.00000047
     atom   41 type  1   force =     0.00000019    0.00000001    0.00000005
     atom   42 type  1   force =    -0.00000007   -0.00000006    0.00000018
     atom   43 type  2   force =    -0.00000024    0.00000007   -0.00000024
     atom   44 type  1   force =    -0.00000001    0.00000005    0.00000001
     atom   45 type  1   force =    -0.00000008    0.00000002   -0.00000008
     atom   46 type  2   force =     0.00000014    0.00000035    0.00000015
     atom   47 type  1   force =    -0.00000004    0.00000014   -0.00000003
     atom   48 type  1   force =     0.00000012    0.00000009    0.00000006
     atom   49 type  2   force =    -0.00000030   -0.00000001    0.00000001
     atom   50 type  1   force =    -0.00000010   -0.00000005   -0.00000006
     atom   51 type  1   force =    -0.00000004    0.00000001    0.00000010
     atom   52 type  2   force =     0.00000009   -0.00000038   -0.00000036
     atom   53 type  1   force =    -0.00000005    0.00000002   -0.00000006
     atom   54 type  1   force =     0.00000004   -0.00000012   -0.00000005
     atom   55 type  2   force =     0.00000015   -0.00000001   -0.00000004
     atom   56 type  1   force =     0.00000002    0.00000001   -0.00000001
     atom   57 type  1   force =     0.00000007   -0.00000005   -0.00000003
     atom   58 type  2   force =     0.00000039   -0.00000011    0.00000007
     atom   59 type  1   force =     0.00000013   -0.00000004   -0.00000003
     atom   60 type  1   force =     0.00000004    0.00000003    0.00000009
     atom   61 type  2   force =    -0.00000038   -0.00000008    0.00000010
     atom   62 type  1   force =    -0.00000005   -0.00000006    0.00000011
     atom   63 type  1   force =    -0.00000013    0.00000002   -0.00000003
     atom   64 type  2   force =    -0.00000008    0.00000033    0.00000013
     atom   65 type  1   force =    -0.00000004    0.00000003    0.00000002
     atom   66 type  1   force =     0.00000000    0.00000003   -0.00000002
     atom   67 type  2   force =     0.00000026   -0.00000024    0.00000031
     atom   68 type  1   force =     0.00000003   -0.00000009   -0.00000001
     atom   69 type  1   force =     0.00000003   -0.00000005    0.00000011
     atom   70 type  2   force =    -0.00000009    0.00000038   -0.00000011
     atom   71 type  1   force =    -0.00000002    0.00000006   -0.00000001
     atom   72 type  1   force =    -0.00000001    0.00000001   -0.00000004
     atom   73 type  2   force =    -0.00000015    0.00000055   -0.00000016
     atom   74 type  1   force =    -0.00000004    0.00000000    0.00000006
     atom   75 type  1   force =    -0.00000002    0.00000014   -0.00000004
     atom   76 type  2   force =     0.00000022   -0.00000005   -0.00000001
     atom   77 type  1   force =     0.00000003   -0.00000000   -0.00000002
     atom   78 type  1   force =     0.00000003   -0.00000002    0.00000003
     atom   79 type  2   force =    -0.00000067    0.00000003    0.00000028
     atom   80 type  1   force =    -0.00000020   -0.00000003    0.00000004
     atom   81 type  1   force =    -0.00000004    0.00000011    0.00000011
     atom   82 type  2   force =    -0.00000012   -0.00000051   -0.00000005
     atom   83 type  1   force =     0.00000000   -0.00000009   -0.00000006
     atom   84 type  1   force =    -0.00000002   -0.00000006    0.00000004
     atom   85 type  2   force =     0.00000005    0.00000019   -0.00000029
     atom   86 type  1   force =    -0.00000004    0.00000007   -0.00000013
     atom   87 type  1   force =     0.00000012    0.00000006    0.00000002
     atom   88 type  2   force =     0.00000020    0.00000011    0.00000004
     atom   89 type  1   force =     0.00000001    0.00000001    0.00000000
     atom   90 type  1   force =     0.00000001    0.00000001    0.00000000
     atom   91 type  2   force =     0.00000019   -0.00000027    0.00000014
     atom   92 type  1   force =     0.00000003   -0.00000007   -0.00000001
     atom   93 type  1   force =     0.00000002   -0.00000003    0.00000006
     atom   94 type  2   force =     0.00000047   -0.00000004    0.00000005
     atom   95 type  1   force =     0.00000012    0.00000007    0.00000012
     atom   96 type  1   force =     0.00000010   -0.00000010   -0.00000009
     atom   97 type  2   force =     0.00000062    0.00000003   -0.00000004
     atom   98 type  1   force =     0.00000010    0.00000007   -0.00000008
     atom   99 type  1   force =     0.00000011   -0.00000004    0.00000003
     atom  100 type  2   force =     0.00000002    0.00000063   -0.00000029
     atom  101 type  1   force =     0.00000014    0.00000011   -0.00000002
     atom  102 type  1   force =    -0.00000011    0.00000015   -0.00000009
     atom  103 type  2   force =     0.00000018   -0.00000020   -0.00000012
     atom  104 type  1   force =    -0.00000002   -0.00000005   -0.00000005
     atom  105 type  1   force =     0.00000007   -0.00000003   -0.00000001
     atom  106 type  2   force =    -0.00000034   -0.00000013   -0.00000036
     atom  107 type  1   force =    -0.00000006    0.00000005   -0.00000008
     atom  108 type  1   force =    -0.00000006   -0.00000009   -0.00000004
     atom  109 type  2   force =     0.00000006    0.00000024    0.00000017
     atom  110 type  1   force =     0.00000004    0.00000008    0.00000003
     atom  111 type  1   force =    -0.00000006   -0.00000002    0.00000005
     atom  112 type  2   force =     0.00000022   -0.00000024   -0.00000006
     atom  113 type  1   force =     0.00000002   -0.00000004   -0.00000002
     atom  114 type  1   force =     0.00000004   -0.00000004   -0.00000000
     atom  115 type  2   force =    -0.00000028    0.00000011   -0.00000037
     atom  116 type  1   force =     0.00000004    0.00000001   -0.00000006
     atom  117 type  1   force =    -0.00000007    0.00000001   -0.00000003
     atom  118 type  2   force =    -0.00000013    0.00000037   -0.00000030
     atom  119 type  1   force =    -0.00000005    0.00000006   -0.00000008
     atom  120 type  1   force =     0.00000002    0.00000005    0.00000000
     atom  121 type  2   force =     0.00000035   -0.00000006    0.00000003
     atom  122 type  1   force =     0.00000009    0.00000005    0.00000005
     atom  123 type  1   force =     0.00000005   -0.00000006   -0.00000002
     atom  124 type  2   force =    -0.00000005   -0.00000013   -0.00000075
     atom  125 type  1   force =     0.00000007    0.00000004   -0.00000018
     atom  126 type  1   force =    -0.00000008   -0.00000015   -0.00000006
     atom  127 type  2   force =    -0.00000016   -0.00000053    0.00000001
     atom  128 type  1   force =     0.00000009   -0.00000017   -0.00000002
     atom  129 type  1   force =    -0.00000016   -0.00000009    0.00000004
     atom  130 type  2   force =     0.00000015   -0.00000019    0.00000021
     atom  131 type  1   force =     0.00000001   -0.00000003   -0.00000000
     atom  132 type  1   force =     0.00000006   -0.00000002    0.00000005
     atom  133 type  2   force =    -0.00000025   -0.00000020    0.00000020
     atom  134 type  1   force =    -0.00000012   -0.00000002   -0.00000001
     atom  135 type  1   force =     0.00000000   -0.00000003    0.00000008
     atom  136 type  2   force =     0.00000043    0.00000034   -0.00000017
     atom  137 type  1   force =     0.00000006    0.00000014   -0.00000005
     atom  138 type  1   force =     0.00000012   -0.00000011   -0.00000006
     atom  139 type  2   force =    -0.00000011    0.00000003    0.00000015
     atom  140 type  1   force =    -0.00000002   -0.00000002    0.00000012
     atom  141 type  1   force =    -0.00000010    0.00000004   -0.00000008

     Total force =     0.511387     Total SCF correction =     0.000003

     Writing output data file ./007.save/
 
     init_run     :      3.31s CPU      2.25s WALL (       1 calls)
     electrons    :     76.76s CPU     41.76s WALL (       1 calls)
     forces       :      1.58s CPU      0.91s WALL (       1 calls)

     Called by init_run:
     wfcinit      :      1.25s CPU      0.67s WALL (       1 calls)
     wfcinit:atom :      0.01s CPU      0.01s WALL (       1 calls)
     wfcinit:wfcr :      1.17s CPU      0.62s WALL (       1 calls)
     potinit      :      0.49s CPU      0.29s WALL (       1 calls)
     hinit0       :      0.34s CPU      0.20s WALL (       1 calls)

     Called by electrons:
     c_bands      :     53.06s CPU     27.90s WALL (      21 calls)
     sum_band     :     11.89s CPU      6.93s WALL (      21 calls)
     v_of_rho     :      5.19s CPU      2.87s WALL (      22 calls)
     v_h          :      0.59s CPU      0.33s WALL (      22 calls)
     v_xc         :      4.81s CPU      2.64s WALL (      23 calls)
     newd         :      3.52s CPU      2.37s WALL (      22 calls)
     PAW_pot      :      1.10s CPU      0.58s WALL (      22 calls)
     mix_rho      :      1.32s CPU      0.71s WALL (      21 calls)

     Called by c_bands:
     init_us_2    :      0.50s CPU      0.26s WALL (      43 calls)
     regterg      :     51.91s CPU     27.31s WALL (      21 calls)

     Called by sum_band:
     sum_band:wei :      0.00s CPU      0.00s WALL (      21 calls)
     sum_band:loo :      8.50s CPU      4.46s WALL (      21 calls)
     sum_band:buf :      0.00s CPU      0.00s WALL (      21 calls)
     sum_band:ini :      0.26s CPU      0.13s WALL (      21 calls)
     sum_band:cal :      0.67s CPU      0.35s WALL (      21 calls)
     sum_band:bec :      0.03s CPU      0.01s WALL (      21 calls)
     addusdens    :      2.66s CPU      2.07s WALL (      21 calls)
     addusd:skk   :      1.02s CPU      0.99s WALL (      42 calls)
     addusd:dgemm :      0.87s CPU      0.64s WALL (      42 calls)
     addusd:qvan2 :      0.56s CPU      0.29s WALL (      42 calls)

     Called by *egterg:
     rdiaghg      :      5.17s CPU      2.66s WALL (      76 calls)
     regterg:over :      1.44s CPU      0.75s WALL (      55 calls)
     regterg:upda :      1.02s CPU      0.52s WALL (      55 calls)
     regterg:last :      2.50s CPU      1.27s WALL (      48 calls)
     h_psi        :     38.78s CPU     20.48s WALL (      77 calls)
     s_psi        :      2.10s CPU      1.07s WALL (      77 calls)
     g_psi        :      0.09s CPU      0.05s WALL (      55 calls)

     Called by h_psi:
     h_psi:calbec :      2.02s CPU      1.04s WALL (      77 calls)
     vloc_psi     :     34.44s CPU     18.24s WALL (      77 calls)
     vloc_psi:tg_ :      0.55s CPU      0.29s WALL (      77 calls)
     add_vuspsi   :      2.14s CPU      1.09s WALL (      77 calls)

     General routines
     calbec       :      2.80s CPU      1.45s WALL (     102 calls)
     fft          :      4.75s CPU      2.63s WALL (     249 calls)
     ffts         :      0.29s CPU      0.17s WALL (      43 calls)
     fftw         :     33.37s CPU     17.69s WALL (    3364 calls)
     interpolate  :      0.66s CPU      0.37s WALL (      22 calls)
 
     Parallel routines
     fft_scatt_xy :      9.44s CPU      4.95s WALL (    3656 calls)
     fft_scatt_yz :      9.25s CPU      5.12s WALL (    3656 calls)
     fft_scatt_tg :      1.80s CPU      1.19s WALL (    3364 calls)

     PAW routines
     PAW_pot      :      1.10s CPU      0.58s WALL (      22 calls)
 
     PWSCF        :   1m23.11s CPU     46.85s WALL

 
   This run was terminated on:  23:28:17  25Jun2021            

=------------------------------------------------------------------------------=
   JOB DONE.
=------------------------------------------------------------------------------=
