
     Program PWSCF v.6.6 starts on 26Jun2021 at 11:55:33 

     This program is part of the open-source Quantum ESPRESSO suite
     for quantum simulation of materials; please cite
         "P. Giannozzi et al., J. Phys.:Condens. Matter 21 395502 (2009);
         "P. Giannozzi et al., J. Phys.:Condens. Matter 29 465901 (2017);
          URL http://www.quantum-espresso.org", 
     in publications or presentations arising from this work. More details at
     http://www.quantum-espresso.org/quote

     Parallel version (MPI & OpenMP), running on     192 processor cores
     Number of MPI processes:                48
     Threads/MPI process:                     4

     MPI processes distributed on     4 nodes
     R & G space division:  proc/nbgrp/npool/nimage =      48
     wavefunctions fft division:  Y-proc x Z-proc =       2     24
     wavefunctions fft division:  task group distribution
                                  #TG    x Z-proc =       2     24
     Fft bands division:     nmany     =       1
     Reading input from _010.in

     Current dimensions of program PWSCF are:
     Max number of different atomic species (ntypx) = 10
     Max number of k-points (npk) =  40000
     Max angular momentum in pseudopotentials (lmaxx) =  3
     file O.pbe-n-kjpaw_psl.0.1.UPF: wavefunction(s)  2P renormalized

     gamma-point specific algorithms are used

     Subspace diagonalization in iterative solution of the eigenvalue problem:
     one sub-group per band group will be used
     ELPA distributed-memory algorithm (size of sub-group:  4*  4 procs)

 
     Parallelization info
     --------------------
     sticks:   dense  smooth     PW     G-vecs:    dense   smooth      PW
     Min        1366     682    169               263398    93128   11644
     Max        1368     686    174               263436    93148   11656
     Sum       65633   32833   8221             12643985  4470653  559139
 


     bravais-lattice index     =            1
     lattice parameter (alat)  =      41.4474  a.u.
     unit-cell volume          =   71201.7581 (a.u.)^3
     number of atoms/cell      =          417
     number of atomic types    =            2
     number of electrons       =      1112.00
     number of Kohn-Sham states=          556
     kinetic-energy cutoff     =      60.0000  Ry
     charge density cutoff     =     480.0000  Ry
     convergence threshold     =      1.0E-10
     mixing beta               =       0.7000
     number of iterations used =            8  plain     mixing
     Exchange-correlation= SLA PW PBX PBC
                           (   1   4   3   4   0   0   0)

     celldm(1)=  41.447363  celldm(2)=   0.000000  celldm(3)=   0.000000
     celldm(4)=   0.000000  celldm(5)=   0.000000  celldm(6)=   0.000000

     crystal axes: (cart. coord. in units of alat)
               a(1) = (   1.000000   0.000000   0.000000 )  
               a(2) = (   0.000000   1.000000   0.000000 )  
               a(3) = (   0.000000   0.000000   1.000000 )  

     reciprocal axes: (cart. coord. in units 2 pi/alat)
               b(1) = (  1.000000  0.000000  0.000000 )  
               b(2) = (  0.000000  1.000000  0.000000 )  
               b(3) = (  0.000000  0.000000  1.000000 )  


     PseudoPot. # 1 for H  read from file:
     ./H.pbe-rrkjus_psl.1.0.0.UPF
     MD5 check sum: f52b6d4d1c606e5624b1dc7b2218f220
     Pseudo is Ultrasoft, Zval =  1.0
     Generated using "atomic" code by A. Dal Corso v.5.1
     Using radial grid of  929 points,  2 beta functions with: 
                l(1) =   0
                l(2) =   0
     Q(r) pseudized with 0 coefficients 


     PseudoPot. # 2 for O  read from file:
     ./O.pbe-n-kjpaw_psl.0.1.UPF
     MD5 check sum: 0234752ac141de4415c5fc33072bef88
     Pseudo is Projector augmented-wave + core cor, Zval =  6.0
     Generated using "atomic" code by A. Dal Corso v.5.0.99 svn rev. 10869
     Shape of augmentation charge: BESSEL
     Using radial grid of 1095 points,  4 beta functions with: 
                l(1) =   0
                l(2) =   0
                l(3) =   1
                l(4) =   1
     Q(r) pseudized with 0 coefficients 


     atomic species   valence    mass     pseudopotential
        H              1.00     1.00000     H ( 1.00)
        O              6.00    16.00000     O ( 1.00)

     No symmetry found


                                    s                        frac. trans.

      isym =  1     identity                                     

 cryst.   s( 1) = (     1          0          0      )
                  (     0          1          0      )
                  (     0          0          1      )

 cart.    s( 1) = (  1.0000000  0.0000000  0.0000000 )
                  (  0.0000000  1.0000000  0.0000000 )
                  (  0.0000000  0.0000000  1.0000000 )


     point group C_1 (1)    
     there are  1 classes
     the character table:

       E    
A      1.00

     the symmetry operations in each class and the name of the first element:

     E        1
          identity                                               

   Cartesian axes

     site n.     atom                  positions (alat units)
         1           O   tau(   1) = (   0.1917772   0.1470173   0.3049382  )
         2           H   tau(   2) = (   0.2370515   0.1523517   0.3041631  )
         3           H   tau(   3) = (   0.1774609   0.1327465   0.2640865  )
         4           O   tau(   4) = (  -0.1602175   0.2380217   0.1756353  )
         5           H   tau(   5) = (  -0.1377263   0.2015470   0.1912283  )
         6           H   tau(   6) = (  -0.1511945   0.2436297   0.1313186  )
         7           O   tau(   7) = (   0.0610154   0.1474732   0.2579314  )
         8           H   tau(   8) = (   0.0911070   0.1631573   0.2883422  )
         9           H   tau(   9) = (   0.0828546   0.1234911   0.2259249  )
        10           O   tau(  10) = (  -0.2178521   0.2008631  -0.2231108  )
        11           H   tau(  11) = (  -0.2353554   0.1601938  -0.2339803  )
        12           H   tau(  12) = (  -0.1756873   0.2042826  -0.2401217  )
        13           O   tau(  13) = (  -0.1435987  -0.3253030  -0.2677331  )
        14           H   tau(  14) = (  -0.1458191  -0.2803752  -0.2751876  )
        15           H   tau(  15) = (  -0.1855355  -0.3415570  -0.2602512  )
        16           O   tau(  16) = (  -0.3076392   0.0526389   0.1434464  )
        17           H   tau(  17) = (  -0.3031163   0.0923508   0.1654224  )
        18           H   tau(  18) = (  -0.2972530   0.0583837   0.0994032  )
        19           O   tau(  19) = (   0.0115921   0.2204227  -0.3766147  )
        20           H   tau(  20) = (   0.0392673   0.2006807  -0.3462312  )
        21           H   tau(  21) = (  -0.0018306   0.2610008  -0.3608211  )
        22           O   tau(  22) = (   0.1760019   0.1351174  -0.1994843  )
        23           H   tau(  23) = (   0.2173551   0.1359837  -0.1802302  )
        24           H   tau(  24) = (   0.1511991   0.1017430  -0.1807500  )
        25           O   tau(  25) = (   0.0772010  -0.1368381  -0.3187384  )
        26           H   tau(  26) = (   0.0371244  -0.1271860  -0.2992290  )
        27           H   tau(  27) = (   0.0789336  -0.1812917  -0.3287143  )
        28           O   tau(  28) = (  -0.0878972   0.1376250   0.0353445  )
        29           H   tau(  29) = (  -0.0762846   0.1385825  -0.0087535  )
        30           H   tau(  30) = (  -0.1198172   0.1057097   0.0419099  )
        31           O   tau(  31) = (   0.1602266   0.0077294   0.3066252  )
        32           H   tau(  32) = (   0.1672936  -0.0105854   0.2654999  )
        33           H   tau(  33) = (   0.1586764   0.0531405   0.3030233  )
        34           O   tau(  34) = (   0.0591460   0.2211977  -0.0460534  )
        35           H   tau(  35) = (   0.0766539   0.1942976  -0.0136912  )
        36           H   tau(  36) = (   0.0924292   0.2460917  -0.0647923  )
        37           O   tau(  37) = (  -0.1380636   0.1280960   0.3250449  )
        38           H   tau(  38) = (  -0.1343888   0.1181111   0.3693617  )
        39           H   tau(  39) = (  -0.1541216   0.0918493   0.3025218  )
        40           O   tau(  40) = (   0.2673255  -0.1369886   0.2273383  )
        41           H   tau(  41) = (   0.2255619  -0.1187694   0.2259705  )
        42           H   tau(  42) = (   0.2976451  -0.1067282   0.2116997  )
        43           O   tau(  43) = (  -0.3240574  -0.1597351   0.2447549  )
        44           H   tau(  44) = (  -0.3623604  -0.1632367   0.2202713  )
        45           H   tau(  45) = (  -0.3117243  -0.1159244   0.2474905  )
        46           O   tau(  46) = (   0.2497264  -0.3521028   0.0235814  )
        47           H   tau(  47) = (   0.2218233  -0.3877568   0.0289614  )
        48           H   tau(  48) = (   0.2719760  -0.3561013  -0.0160211  )
        49           O   tau(  49) = (   0.0384466   0.0077750  -0.1891802  )
        50           H   tau(  50) = (   0.0770186   0.0139757  -0.1657133  )
        51           H   tau(  51) = (   0.0039643   0.0282465  -0.1674641  )
        52           O   tau(  52) = (   0.0005585   0.0381402   0.0543113  )
        53           H   tau(  53) = (  -0.0215452  -0.0009880   0.0466060  )
        54           H   tau(  54) = (  -0.0296425   0.0712411   0.0626093  )
        55           O   tau(  55) = (  -0.0454908  -0.0677641  -0.1040756  )
        56           H   tau(  56) = (  -0.0008959  -0.0616227  -0.0968445  )
        57           H   tau(  57) = (  -0.0629166  -0.0306374  -0.1239908  )
        58           O   tau(  58) = (   0.0430972   0.0075471   0.1684772  )
        59           H   tau(  59) = (   0.0390393   0.0287024   0.1283094  )
        60           H   tau(  60) = (   0.0138262  -0.0273501   0.1703009  )
        61           O   tau(  61) = (  -0.0789427  -0.0675498   0.0181102  )
        62           H   tau(  62) = (  -0.1198628  -0.0510587   0.0295997  )
        63           H   tau(  63) = (  -0.0733028  -0.0641166  -0.0270228  )
        64           O   tau(  64) = (  -0.0255437   0.3236005   0.1303155  )
        65           H   tau(  65) = (  -0.0122350   0.3105608   0.1719423  )
        66           H   tau(  66) = (  -0.0001573   0.3589354   0.1166375  )
        67           O   tau(  67) = (   0.0692678  -0.3446346  -0.2481963  )
        68           H   tau(  68) = (   0.0467902  -0.3228364  -0.2813655  )
        69           H   tau(  69) = (   0.0398600  -0.3694556  -0.2237355  )
        70           O   tau(  70) = (  -0.1044431   0.4187539  -0.1116943  )
        71           H   tau(  71) = (  -0.0834656   0.4260945  -0.0718867  )
        72           H   tau(  72) = (  -0.1223202   0.3768080  -0.1119496  )
        73           O   tau(  73) = (  -0.1563056  -0.0378594   0.1651489  )
        74           H   tau(  74) = (  -0.1718484  -0.0279611   0.2068668  )
        75           H   tau(  75) = (  -0.1123353  -0.0496362   0.1677477  )
        76           O   tau(  76) = (  -0.0496717   0.1983099   0.3952587  )
        77           H   tau(  77) = (  -0.0181758   0.2284927   0.3819455  )
        78           H   tau(  78) = (  -0.0912028   0.2144499   0.3855929  )
        79           O   tau(  79) = (  -0.3449209  -0.0469097  -0.0096015  )
        80           H   tau(  80) = (  -0.3439817  -0.0686714   0.0304660  )
        81           H   tau(  81) = (  -0.3499909  -0.0772430  -0.0432631  )
        82           O   tau(  82) = (  -0.1395637   0.0748885  -0.2185834  )
        83           H   tau(  83) = (  -0.1840400   0.0741590  -0.2285684  )
        84           H   tau(  84) = (  -0.1160648   0.0892960  -0.2548894  )
        85           O   tau(  85) = (   0.1910477  -0.2907477   0.2939502  )
        86           H   tau(  86) = (   0.1832057  -0.3225400   0.3256832  )
        87           H   tau(  87) = (   0.2238294  -0.2625801   0.3084489  )
        88           O   tau(  88) = (  -0.2730794  -0.1918146  -0.2801071  )
        89           H   tau(  89) = (  -0.2868121  -0.2347955  -0.2866726  )
        90           H   tau(  90) = (  -0.2505790  -0.1889240  -0.2405594  )
        91           O   tau(  91) = (   0.2638604   0.3221415   0.0995856  )
        92           H   tau(  92) = (   0.2277048   0.3085547   0.1238868  )
        93           H   tau(  93) = (   0.2603041   0.3666863   0.0907404  )
        94           O   tau(  94) = (  -0.2441048  -0.3162162  -0.1338800  )
        95           H   tau(  95) = (  -0.2332809  -0.2804892  -0.1600552  )
        96           H   tau(  96) = (  -0.2591415  -0.3014348  -0.0934523  )
        97           O   tau(  97) = (   0.3224023   0.1389472  -0.1720918  )
        98           H   tau(  98) = (   0.3006999   0.1037036  -0.1530110  )
        99           H   tau(  99) = (   0.3368554   0.1271842  -0.2136912  )
       100           O   tau( 100) = (  -0.1343204  -0.1987585   0.1239324  )
       101           H   tau( 101) = (  -0.1661629  -0.1708964   0.1069261  )
       102           H   tau( 102) = (  -0.0939247  -0.1888374   0.1052391  )
       103           O   tau( 103) = (  -0.1182123  -0.1865531  -0.2627041  )
       104           H   tau( 104) = (  -0.1237564  -0.1908252  -0.3077550  )
       105           H   tau( 105) = (  -0.0814503  -0.1609296  -0.2542785  )
       106           O   tau( 106) = (   0.1899991  -0.1909711   0.0259978  )
       107           H   tau( 107) = (   0.2213218  -0.1927219   0.0590530  )
       108           H   tau( 108) = (   0.1527493  -0.1697064   0.0414540  )
       109           O   tau( 109) = (   0.3093626   0.0016199   0.1737204  )
       110           H   tau( 110) = (   0.2748028   0.0048115   0.1441759  )
       111           H   tau( 111) = (   0.3461565   0.0222737   0.1563493  )
       112           O   tau( 112) = (  -0.1246136  -0.1932782  -0.3864629  )
       113           H   tau( 113) = (  -0.0989035  -0.1722049  -0.4176624  )
       114           H   tau( 114) = (  -0.1218871  -0.2383928  -0.3924766  )
       115           O   tau( 115) = (   0.0262276  -0.2443564  -0.3658638  )
       116           H   tau( 116) = (   0.0336593  -0.2370661  -0.4102535  )
       117           H   tau( 117) = (  -0.0011877  -0.2804299  -0.3607710  )
       118           O   tau( 118) = (  -0.0610290   0.1662121   0.2194962  )
       119           H   tau( 119) = (  -0.0160876   0.1692213   0.2265176  )
       120           H   tau( 120) = (  -0.0810993   0.1489322   0.2566092  )
       121           O   tau( 121) = (   0.0999065   0.1830817  -0.2754885  )
       122           H   tau( 122) = (   0.1266699   0.1768354  -0.2390913  )
       123           H   tau( 123) = (   0.1032349   0.1469717  -0.3031546  )
       124           O   tau( 124) = (  -0.3795947   0.1488410  -0.0439607  )
       125           H   tau( 125) = (  -0.3773332   0.1941609  -0.0482693  )
       126           H   tau( 126) = (  -0.4232139   0.1356189  -0.0451416  )
       127           O   tau( 127) = (  -0.0571627   0.0577454  -0.1273054  )
       128           H   tau( 128) = (  -0.0507386   0.0976396  -0.1062230  )
       129           H   tau( 129) = (  -0.0857999   0.0634902  -0.1623120  )
       130           O   tau( 130) = (  -0.0043610  -0.2603643   0.2504541  )
       131           H   tau( 131) = (  -0.0498176  -0.2637154   0.2494055  )
       132           H   tau( 132) = (   0.0109538  -0.2740286   0.2911690  )
       133           O   tau( 133) = (   0.2262458   0.1326098   0.0860899  )
       134           H   tau( 134) = (   0.1985706   0.1664857   0.0732782  )
       135           H   tau( 135) = (   0.2642251   0.1500264   0.1042817  )
       136           O   tau( 136) = (   0.2245589  -0.2080322  -0.0912821  )
       137           H   tau( 137) = (   0.1889960  -0.2248972  -0.1142429  )
       138           H   tau( 138) = (   0.2140268  -0.2048817  -0.0470428  )
       139           O   tau( 139) = (   0.1867620  -0.0716076  -0.0025665  )
       140           H   tau( 140) = (   0.1465030  -0.0612579  -0.0212962  )
       141           H   tau( 141) = (   0.1972484  -0.1149487  -0.0120681  )
       142           O   tau( 142) = (   0.4076620   0.0193558  -0.1264118  )
       143           H   tau( 143) = (   0.3659440   0.0059057  -0.1139238  )
       144           H   tau( 144) = (   0.4293644  -0.0152679  -0.1466735  )
       145           O   tau( 145) = (  -0.0289586  -0.1621470   0.0766977  )
       146           H   tau( 146) = (  -0.0437036  -0.1272908   0.0513021  )
       147           H   tau( 147) = (  -0.0071969  -0.1921657   0.0501623  )
       148           O   tau( 148) = (  -0.2521064   0.2216993  -0.0918064  )
       149           H   tau( 149) = (  -0.2976041   0.2191916  -0.0933794  )
       150           H   tau( 150) = (  -0.2347809   0.2088419  -0.1319788  )
       151           O   tau( 151) = (   0.3529955  -0.1970168  -0.0576114  )
       152           H   tau( 152) = (   0.3111863  -0.2151676  -0.0583819  )
       153           H   tau( 153) = (   0.3604272  -0.1776852  -0.0169968  )
       154           O   tau( 154) = (  -0.2459057   0.2423531   0.0301012  )
       155           H   tau( 155) = (  -0.2464300   0.2289942  -0.0135043  )
       156           H   tau( 156) = (  -0.2028108   0.2488273   0.0435057  )
       157           O   tau( 157) = (   0.2844230  -0.2008284   0.1111207  )
       158           H   tau( 158) = (   0.2717481  -0.1739967   0.1457261  )
       159           H   tau( 159) = (   0.3221288  -0.2237391   0.1227014  )
       160           O   tau( 160) = (   0.1408494   0.0384594  -0.1168645  )
       161           H   tau( 161) = (   0.1839808   0.0302526  -0.1290790  )
       162           H   tau( 162) = (   0.1398008   0.0532317  -0.0737423  )
       163           O   tau( 163) = (   0.3224479  -0.0143423   0.2912146  )
       164           H   tau( 164) = (   0.2933593   0.0142037   0.3116405  )
       165           H   tau( 165) = (   0.3198947  -0.0088711   0.2459860  )
       166           O   tau( 166) = (   0.3550472   0.1539931   0.1197834  )
       167           H   tau( 167) = (   0.3492112   0.1875042   0.1501942  )
       168           H   tau( 168) = (   0.3707769   0.1715009   0.0807555  )
       169           O   tau( 169) = (  -0.1629759   0.0452072   0.0755578  )
       170           H   tau( 170) = (  -0.1665504   0.0193102   0.1128988  )
       171           H   tau( 171) = (  -0.2046300   0.0564688   0.0608312  )
       172           O   tau( 172) = (   0.3658528  -0.1374354   0.0488857  )
       173           H   tau( 173) = (   0.3950326  -0.1140460   0.0749651  )
       174           H   tau( 174) = (   0.3308371  -0.1517471   0.0743724  )
       175           O   tau( 175) = (  -0.3265741  -0.1387348  -0.1008430  )
       176           H   tau( 176) = (  -0.2814412  -0.1324794  -0.0991561  )
       177           H   tau( 177) = (  -0.3355059  -0.1819208  -0.1124192  )
       178           O   tau( 178) = (  -0.2062486  -0.1290052  -0.0490124  )
       179           H   tau( 179) = (  -0.2123262  -0.1195217  -0.0048324  )
       180           H   tau( 180) = (  -0.1921237  -0.0915228  -0.0707924  )
       181           O   tau( 181) = (   0.0502553  -0.0629130  -0.4421962  )
       182           H   tau( 182) = (   0.0894656  -0.0771199  -0.4606661  )
       183           H   tau( 183) = (   0.0452856  -0.0816063  -0.4009114  )
       184           O   tau( 184) = (  -0.0427187  -0.0809725   0.1767296  )
       185           H   tau( 185) = (  -0.0388433  -0.1156007   0.1473218  )
       186           H   tau( 186) = (  -0.0340560  -0.0958405   0.2189491  )
       187           O   tau( 187) = (   0.2177655   0.0016655   0.0871386  )
       188           H   tau( 188) = (   0.2105161   0.0461647   0.0802995  )
       189           H   tau( 189) = (   0.2008047  -0.0220476   0.0521228  )
       190           O   tau( 190) = (   0.1014567   0.3135700   0.0500255  )
       191           H   tau( 191) = (   0.1093444   0.3053176   0.0058911  )
       192           H   tau( 192) = (   0.0781129   0.3524611   0.0543113  )
       193           O   tau( 193) = (   0.1197853   0.1851790   0.0596001  )
       194           H   tau( 194) = (   0.0891465   0.1671696   0.0881416  )
       195           H   tau( 195) = (   0.1097547   0.2289942   0.0521684  )
       196           O   tau( 196) = (   0.4396229   0.0696453  -0.0219117  )
       197           H   tau( 197) = (   0.4340605   0.0578366  -0.0656039  )
       198           H   tau( 198) = (   0.4794260   0.0912566  -0.0169284  )
       199           O   tau( 199) = (  -0.1369512  -0.2760347   0.0240373  )
       200           H   tau( 200) = (  -0.1045707  -0.2513003   0.0035659  )
       201           H   tau( 201) = (  -0.1285437  -0.2780317   0.0688100  )
       202           O   tau( 202) = (   0.3783910   0.1791150  -0.0136502  )
       203           H   tau( 203) = (   0.4004582   0.1397679  -0.0071987  )
       204           H   tau( 204) = (   0.3790749   0.1898295  -0.0579624  )
       205           O   tau( 205) = (  -0.2135162  -0.1047677   0.0800716  )
       206           H   tau( 206) = (  -0.2567113  -0.1173971   0.0873665  )
       207           H   tau( 207) = (  -0.2017257  -0.0727338   0.1103000  )
       208           O   tau( 208) = (  -0.0260179  -0.3120535   0.1267592  )
       209           H   tau( 209) = (  -0.0214494  -0.2818342   0.1605895  )
       210           H   tau( 210) = (   0.0137806  -0.3166493   0.1050112  )
       211           O   tau( 211) = (   0.1638285  -0.2842598  -0.1801847  )
       212           H   tau( 212) = (   0.1248917  -0.3026203  -0.1952350  )
       213           H   tau( 213) = (   0.1801509  -0.2554493  -0.2115210  )
       214           O   tau( 214) = (   0.1853486  -0.0806853  -0.2985725  )
       215           H   tau( 215) = (   0.1461382  -0.1033042  -0.3040665  )
       216           H   tau( 216) = (   0.1900903  -0.0501468  -0.3320927  )
       217           O   tau( 217) = (  -0.0034811   0.0738399   0.3969001  )
       218           H   tau( 218) = (  -0.0230452   0.1148283   0.3925231  )
       219           H   tau( 219) = (   0.0418205   0.0787184   0.3983135  )
       220           O   tau( 220) = (   0.2668240   0.0276994  -0.1363192  )
       221           H   tau( 221) = (   0.2742557  -0.0037099  -0.1685219  )
       222           H   tau( 222) = (   0.2643163   0.0073647  -0.0955770  )
       223           O   tau( 223) = (  -0.0498587   0.1711362  -0.0819081  )
       224           H   tau( 224) = (  -0.0640428   0.1931122  -0.1192445  )
       225           H   tau( 225) = (  -0.0092669   0.1875042  -0.0691374  )
       226           O   tau( 226) = (  -0.2839033   0.2526116   0.2039488  )
       227           H   tau( 227) = (  -0.2954338   0.2967460   0.2044504  )
       228           H   tau( 228) = (  -0.2386017   0.2487362   0.2072772  )
       229           O   tau( 229) = (   0.2155314  -0.2170232  -0.2714034  )
       230           H   tau( 230) = (   0.2165800  -0.2313988  -0.3146578  )
       231           H   tau( 231) = (   0.1953791  -0.1761898  -0.2694246  )
       232           O   tau( 232) = (   0.0158779   0.3783582  -0.2205804  )
       233           H   tau( 233) = (   0.0578694   0.3734341  -0.2034920  )
       234           H   tau( 234) = (  -0.0051407   0.4129180  -0.1995801  )
       235           O   tau( 235) = (  -0.1008047  -0.4108134   0.1090234  )
       236           H   tau( 236) = (  -0.1328432  -0.4077860   0.0767433  )
       237           H   tau( 237) = (  -0.0778621  -0.3714845   0.1113942  )
       238           O   tau( 238) = (  -0.1763758   0.0032157   0.2938590  )
       239           H   tau( 239) = (  -0.1780399  -0.0127101   0.3365344  )
       240           H   tau( 240) = (  -0.1328751   0.0088237   0.2814120  )
       241           O   tau( 241) = (  -0.1202321  -0.2313487   0.2450741  )
       242           H   tau( 242) = (  -0.1296289  -0.2209579   0.2016692  )
       243           H   tau( 243) = (  -0.1590868  -0.2343487   0.2687371  )
       244           O   tau( 244) = (  -0.0839580  -0.0118575  -0.3518712  )
       245           H   tau( 245) = (  -0.0810035  -0.0362636  -0.3902699  )
       246           H   tau( 246) = (  -0.1080404   0.0260580  -0.3597725  )
       247           O   tau( 247) = (  -0.1749669   0.3252419  -0.0761861  )
       248           H   tau( 248) = (  -0.1628756   0.3281143  -0.0323161  )
       249           H   tau( 249) = (  -0.2007546   0.2881744  -0.0824643  )
       250           O   tau( 250) = (   0.1563512   0.2973387   0.1624133  )
       251           H   tau( 251) = (   0.1410774   0.3038130   0.1199658  )
       252           H   tau( 252) = (   0.1211075   0.2966548   0.1913195  )
       253           O   tau( 253) = (  -0.3201409  -0.2274231   0.0630652  )
       254           H   tau( 254) = (  -0.3141773  -0.2613354   0.0929289  )
       255           H   tau( 255) = (  -0.3000752  -0.2382561   0.0235814  )
       256           O   tau( 256) = (  -0.0003260  -0.3880076  -0.0008111  )
       257           H   tau( 257) = (   0.0293280  -0.3546195   0.0083532  )
       258           H   tau( 258) = (  -0.0408996  -0.3699070  -0.0110331  )
       259           O   tau( 259) = (   0.2849701  -0.0613081  -0.2190667  )
       260           H   tau( 260) = (   0.3066726  -0.1012023  -0.2230607  )
       261           H   tau( 261) = (   0.2710641  -0.0473975  -0.2601965  )
       262           O   tau( 262) = (  -0.0571992   0.4435567   0.0009214  )
       263           H   tau( 263) = (  -0.0717663   0.4389974   0.0438704  )
       264           H   tau( 264) = (  -0.0418069   0.4860042  -0.0054981  )
       265           O   tau( 265) = (  -0.0583573  -0.0320143   0.4344691  )
       266           H   tau( 266) = (  -0.0271440  -0.0652245   0.4332380  )
       267           H   tau( 267) = (  -0.0396503   0.0069544   0.4199248  )
       268           O   tau( 268) = (  -0.0152168   0.2409397  -0.1983445  )
       269           H   tau( 269) = (   0.0270483   0.2239789  -0.2001181  )
       270           H   tau( 270) = (  -0.0132152   0.2863507  -0.1946150  )
       271           O   tau( 271) = (   0.1487827   0.2926882  -0.0746223  )
       272           H   tau( 272) = (   0.1433114   0.3231902  -0.1080787  )
       273           H   tau( 273) = (   0.1877194   0.3012142  -0.0525186  )
       274           O   tau( 274) = (   0.0147381   0.0853294  -0.3258328  )
       275           H   tau( 275) = (  -0.0170132   0.0592500  -0.3456477  )
       276           H   tau( 276) = (   0.0043245   0.0910742  -0.2818169  )
       277           O   tau( 277) = (  -0.3497219  -0.1074258   0.0973971  )
       278           H   tau( 278) = (  -0.3868486  -0.1006278   0.1229750  )
       279           H   tau( 279) = (  -0.3435577  -0.1521666   0.0911508  )
       280           O   tau( 280) = (   0.1075206  -0.2575557  -0.0589792  )
       281           H   tau( 281) = (   0.1242534  -0.2947235  -0.0794004  )
       282           H   tau( 282) = (   0.1201044  -0.2573232  -0.0151593  )
       283           O   tau( 283) = (   0.0960767  -0.3319870   0.0738709  )
       284           H   tau( 284) = (   0.1293143  -0.3109821   0.0969867  )
       285           H   tau( 285) = (   0.1131742  -0.3683887   0.0523964  )
       286           O   tau( 286) = (  -0.3014658  -0.0018771  -0.3190713  )
       287           H   tau( 287) = (  -0.3290179  -0.0322377  -0.2991333  )
       288           H   tau( 288) = (  -0.2677358  -0.0237710  -0.3405549  )
       289           O   tau( 289) = (  -0.0997515   0.4251370   0.1089778  )
       290           H   tau( 290) = (  -0.0785323   0.3906228   0.1298596  )
       291           H   tau( 291) = (  -0.1065814   0.4590129   0.1387503  )
       292           O   tau( 292) = (   0.0635230   0.3159408   0.2468978  )
       293           H   tau( 293) = (   0.0640245   0.2934177   0.2865185  )
       294           H   tau( 294) = (   0.0487507   0.3585251   0.2537824  )
       295           O   tau( 295) = (  -0.0869671  -0.2900638  -0.1065148  )
       296           H   tau( 296) = (  -0.1313067  -0.2980062  -0.1135864  )
       297           H   tau( 297) = (  -0.0715885  -0.2607701  -0.1378831  )
       298           O   tau( 298) = (  -0.0469680   0.0337633   0.2806825  )
       299           H   tau( 299) = (  -0.0184038   0.0537788   0.3099991  )
       300           H   tau( 300) = (  -0.0230041   0.0106018   0.2495422  )
       301           O   tau( 301) = (  -0.1453495   0.0911198  -0.3902289  )
       302           H   tau( 302) = (  -0.1399786   0.0930803  -0.4354621  )
       303           H   tau( 303) = (  -0.1701432   0.1267738  -0.3763183  )
       304           O   tau( 304) = (  -0.2442871  -0.2438093  -0.0304240  )
       305           H   tau( 305) = (  -0.2055282  -0.2597260  -0.0124511  )
       306           H   tau( 306) = (  -0.2433844  -0.1982250  -0.0305562  )
       307           O   tau( 307) = (   0.1223841   0.1010135   0.4240282  )
       308           H   tau( 308) = (   0.1528405   0.0745694   0.4453203  )
       309           H   tau( 309) = (   0.1441321   0.1294638   0.3957603  )
       310           O   tau( 310) = (   0.1665185  -0.1098149  -0.1650021  )
       311           H   tau( 311) = (   0.1861692  -0.0849574  -0.1977974  )
       312           H   tau( 312) = (   0.1978867  -0.1362636  -0.1451370  )
       313           O   tau( 313) = (  -0.0975129   0.1712730  -0.2883413  )
       314           H   tau( 314) = (  -0.0877012   0.2133557  -0.2737833  )
       315           H   tau( 315) = (  -0.0764943   0.1636133  -0.3280714  )
       316           O   tau( 316) = (  -0.2318401  -0.2124183   0.3049838  )
       317           H   tau( 317) = (  -0.2311699  -0.1923344   0.3459267  )
       318           H   tau( 318) = (  -0.2642981  -0.1933739   0.2792235  )
       319           O   tau( 319) = (   0.0427780   0.4195290   0.0883240  )
       320           H   tau( 320) = (   0.0332034   0.4548183   0.1154977  )
       321           H   tau( 321) = (   0.0183399   0.4228117   0.0499799  )
       322           O   tau( 322) = (   0.4045160   0.0432923   0.1051024  )
       323           H   tau( 323) = (   0.4017804   0.0437482   0.0596001  )
       324           H   tau( 324) = (   0.3910204   0.0836425   0.1215160  )
       325           O   tau( 325) = (   0.2088748   0.0194925  -0.3760311  )
       326           H   tau( 326) = (   0.1738134   0.0476237  -0.3837181  )
       327           H   tau( 327) = (   0.2479027   0.0429276  -0.3781147  )
       328           O   tau( 328) = (  -0.2886860  -0.0501696   0.2437063  )
       329           H   tau( 329) = (  -0.3013883  -0.0266343   0.2067756  )
       330           H   tau( 330) = (  -0.2607236  -0.0246510   0.2691018  )
       331           O   tau( 331) = (  -0.3328888   0.0663626  -0.1429303  )
       332           H   tau( 332) = (  -0.3542356   0.0798582  -0.1049829  )
       333           H   tau( 333) = (  -0.3395454   0.0216354  -0.1489897  )
       334           O   tau( 334) = (  -0.1901906  -0.0000853  -0.0818579  )
       335           H   tau( 335) = (  -0.1486960   0.0187631  -0.0807865  )
       336           H   tau( 336) = (  -0.2197077   0.0291583  -0.1005923  )
       337           O   tau( 337) = (  -0.3854306  -0.0560056  -0.1630233  )
       338           H   tau( 338) = (  -0.3653650  -0.0909575  -0.1417084  )
       339           H   tau( 339) = (  -0.4269161  -0.0492304  -0.1453695  )
       340           O   tau( 340) = (   0.1810628  -0.2831200   0.1711216  )
       341           H   tau( 341) = (   0.1852574  -0.2874331   0.2163047  )
       342           H   tau( 342) = (   0.2222336  -0.2855911   0.1516988  )
       343           O   tau( 343) = (   0.2695596   0.2688428  -0.0081744  )
       344           H   tau( 344) = (   0.2691036   0.2945119   0.0295085  )
       345           H   tau( 345) = (   0.3120982   0.2544809  -0.0162171  )
       346           O   tau( 346) = (  -0.0134979  -0.2461346  -0.0127110  )
       347           H   tau( 347) = (  -0.0404299  -0.2629859  -0.0454106  )
       348           H   tau( 348) = (   0.0297839  -0.2462850  -0.0270866  )
       349           O   tau( 349) = (  -0.2771098   0.0676392   0.0251315  )
       350           H   tau( 350) = (  -0.2971071   0.0991898  -0.0009935  )
       351           H   tau( 351) = (  -0.2930310   0.0263771   0.0139612  )
       352           O   tau( 352) = (  -0.3322095   0.1986746   0.1075188  )
       353           H   tau( 353) = (  -0.3176469   0.2142675   0.1478234  )
       354           H   tau( 354) = (  -0.3023731   0.2103009   0.0750563  )
       355           O   tau( 355) = (   0.1166393   0.0707851  -0.0034783  )
       356           H   tau( 356) = (   0.1310012   0.1081261   0.0183837  )
       357           H   tau( 357) = (   0.0799822   0.0538700   0.0177454  )
       358           O   tau( 358) = (  -0.0306821  -0.1832111  -0.1567816  )
       359           H   tau( 359) = (  -0.0348539  -0.1393731  -0.1449683  )
       360           H   tau( 360) = (   0.0134615  -0.1946505  -0.1574199  )
       361           O   tau( 361) = (  -0.1807983  -0.4088483  -0.0016318  )
       362           H   tau( 362) = (  -0.1881298  -0.3702945  -0.0248297  )
       363           H   tau( 363) = (  -0.2081498  -0.4100793   0.0348429  )
       364           O   tau( 364) = (   0.0270483  -0.4151858  -0.1270683  )
       365           H   tau( 365) = (  -0.0032941  -0.4228181  -0.0939037  )
       366           H   tau( 366) = (   0.0668969  -0.4028801  -0.1086668  )
       367           O   tau( 367) = (   0.1706219  -0.0437683   0.1992983  )
       368           H   tau( 368) = (   0.1997105  -0.0371253   0.1647841  )
       369           H   tau( 369) = (   0.1278097  -0.0408503   0.1838422  )
       370           O   tau( 370) = (  -0.0145511  -0.0803068  -0.2637209  )
       371           H   tau( 371) = (  -0.0379998  -0.0562609  -0.2945511  )
       372           H   tau( 372) = (   0.0098596  -0.0519386  -0.2377007  )
       373           O   tau( 373) = (  -0.1226485   0.2685693   0.0566822  )
       374           H   tau( 374) = (  -0.0911526   0.2920043   0.0798436  )
       375           H   tau( 375) = (  -0.1055100   0.2281279   0.0443720  )
       376           O   tau( 376) = (   0.1518830   0.0903903   0.2049063  )
       377           H   tau( 377) = (   0.1723088   0.1011047   0.1656048  )
       378           H   tau( 378) = (   0.1311380   0.0499945   0.2007573  )
       379           O   tau( 379) = (   0.0937514  -0.1841367   0.2062741  )
       380           H   tau( 380) = (   0.1224297  -0.2193621   0.2023075  )
       381           H   tau( 381) = (   0.0523982  -0.1994378   0.2178092  )
       382           O   tau( 382) = (   0.1444057   0.3563366  -0.1963612  )
       383           H   tau( 383) = (   0.1400743   0.3661847  -0.2406597  )
       384           H   tau( 384) = (   0.1882665   0.3595281  -0.1843245  )
       385           O   tau( 385) = (   0.2981466  -0.0299353  -0.0294210  )
       386           H   tau( 386) = (   0.2584804  -0.0486924  -0.0170697  )
       387           H   tau( 387) = (   0.3300164  -0.0400524   0.0015598  )
       388           O   tau( 388) = (   0.0885538  -0.1036096   0.3120964  )
       389           H   tau( 389) = (   0.1037364  -0.1291328   0.2775366  )
       390           H   tau( 390) = (   0.1066088  -0.0618461   0.3092696  )
       391           O   tau( 391) = (  -0.2118976  -0.1895988  -0.1764050  )
       392           H   tau( 392) = (  -0.1745292  -0.1904651  -0.2025117  )
       393           H   tau( 393) = (  -0.2000616  -0.1810865  -0.1332052  )
       394           O   tau( 394) = (   0.0927484  -0.1163439   0.0943423  )
       395           H   tau( 395) = (   0.0482492  -0.1185916   0.0846765  )
       396           H   tau( 396) = (   0.0998153  -0.1306283   0.1370633  )
       397           O   tau( 397) = (   0.0849519  -0.0767050  -0.0784840  )
       398           H   tau( 398) = (   0.0958487  -0.0348639  -0.0929554  )
       399           H   tau( 399) = (   0.1104386  -0.1074896  -0.1004464  )
       400           O   tau( 400) = (   0.0083413   0.1492514   0.1033242  )
       401           H   tau( 401) = (  -0.0073428   0.1415917   0.1454525  )
       402           H   tau( 402) = (  -0.0266835   0.1575038   0.0753299  )
       403           O   tau( 403) = (  -0.3313705   0.1418196   0.2483568  )
       404           H   tau( 404) = (  -0.3284845   0.1327465   0.2929472  )
       405           H   tau( 405) = (  -0.3033580   0.1762882   0.2380071  )
       406           O   tau( 406) = (  -0.2592327   0.0900255  -0.2429531  )
       407           H   tau( 407) = (  -0.2815552   0.0624871  -0.2716496  )
       408           H   tau( 408) = (  -0.2830415   0.0941745  -0.2042944  )
       409           O   tau( 409) = (  -0.1431382   0.3303939   0.2666854  )
       410           H   tau( 410) = (  -0.1528587   0.3014877   0.2328095  )
       411           H   tau( 411) = (  -0.1565791   0.3124301   0.3063972  )
       412           O   tau( 412) = (   0.1113049   0.1012415  -0.4020330  )
       413           H   tau( 413) = (   0.1105298   0.1275945  -0.4392463  )
       414           H   tau( 414) = (   0.0687206   0.0948584  -0.3870373  )
       415           O   tau( 415) = (  -0.0497538  -0.1246145   0.2965034  )
       416           H   tau( 416) = (  -0.0224114  -0.1174199   0.3322943  )
       417           H   tau( 417) = (  -0.0748575  -0.1619646   0.3038440  )

   Crystallographic axes

     site n.     atom                  positions (cryst. coord.)
         1           O   tau(   1) = (  0.1917772  0.1470173  0.3049382  )
         2           H   tau(   2) = (  0.2370515  0.1523517  0.3041631  )
         3           H   tau(   3) = (  0.1774609  0.1327465  0.2640865  )
         4           O   tau(   4) = ( -0.1602175  0.2380217  0.1756353  )
         5           H   tau(   5) = ( -0.1377263  0.2015470  0.1912283  )
         6           H   tau(   6) = ( -0.1511945  0.2436297  0.1313186  )
         7           O   tau(   7) = (  0.0610154  0.1474732  0.2579314  )
         8           H   tau(   8) = (  0.0911070  0.1631573  0.2883422  )
         9           H   tau(   9) = (  0.0828546  0.1234911  0.2259249  )
        10           O   tau(  10) = ( -0.2178521  0.2008631 -0.2231108  )
        11           H   tau(  11) = ( -0.2353554  0.1601938 -0.2339803  )
        12           H   tau(  12) = ( -0.1756873  0.2042826 -0.2401217  )
        13           O   tau(  13) = ( -0.1435987 -0.3253030 -0.2677331  )
        14           H   tau(  14) = ( -0.1458191 -0.2803752 -0.2751876  )
        15           H   tau(  15) = ( -0.1855355 -0.3415570 -0.2602512  )
        16           O   tau(  16) = ( -0.3076392  0.0526389  0.1434464  )
        17           H   tau(  17) = ( -0.3031163  0.0923508  0.1654224  )
        18           H   tau(  18) = ( -0.2972530  0.0583837  0.0994032  )
        19           O   tau(  19) = (  0.0115921  0.2204227 -0.3766147  )
        20           H   tau(  20) = (  0.0392673  0.2006807 -0.3462312  )
        21           H   tau(  21) = ( -0.0018306  0.2610008 -0.3608211  )
        22           O   tau(  22) = (  0.1760019  0.1351174 -0.1994843  )
        23           H   tau(  23) = (  0.2173551  0.1359837 -0.1802302  )
        24           H   tau(  24) = (  0.1511991  0.1017430 -0.1807500  )
        25           O   tau(  25) = (  0.0772010 -0.1368381 -0.3187384  )
        26           H   tau(  26) = (  0.0371244 -0.1271860 -0.2992290  )
        27           H   tau(  27) = (  0.0789336 -0.1812917 -0.3287143  )
        28           O   tau(  28) = ( -0.0878972  0.1376250  0.0353445  )
        29           H   tau(  29) = ( -0.0762846  0.1385825 -0.0087535  )
        30           H   tau(  30) = ( -0.1198172  0.1057097  0.0419099  )
        31           O   tau(  31) = (  0.1602266  0.0077294  0.3066252  )
        32           H   tau(  32) = (  0.1672936 -0.0105854  0.2654999  )
        33           H   tau(  33) = (  0.1586764  0.0531405  0.3030233  )
        34           O   tau(  34) = (  0.0591460  0.2211977 -0.0460534  )
        35           H   tau(  35) = (  0.0766539  0.1942976 -0.0136912  )
        36           H   tau(  36) = (  0.0924292  0.2460917 -0.0647923  )
        37           O   tau(  37) = ( -0.1380636  0.1280960  0.3250449  )
        38           H   tau(  38) = ( -0.1343888  0.1181111  0.3693617  )
        39           H   tau(  39) = ( -0.1541216  0.0918493  0.3025218  )
        40           O   tau(  40) = (  0.2673255 -0.1369886  0.2273383  )
        41           H   tau(  41) = (  0.2255619 -0.1187694  0.2259705  )
        42           H   tau(  42) = (  0.2976451 -0.1067282  0.2116997  )
        43           O   tau(  43) = ( -0.3240574 -0.1597351  0.2447549  )
        44           H   tau(  44) = ( -0.3623604 -0.1632367  0.2202713  )
        45           H   tau(  45) = ( -0.3117243 -0.1159244  0.2474905  )
        46           O   tau(  46) = (  0.2497264 -0.3521028  0.0235814  )
        47           H   tau(  47) = (  0.2218233 -0.3877568  0.0289614  )
        48           H   tau(  48) = (  0.2719760 -0.3561013 -0.0160211  )
        49           O   tau(  49) = (  0.0384466  0.0077750 -0.1891802  )
        50           H   tau(  50) = (  0.0770186  0.0139757 -0.1657133  )
        51           H   tau(  51) = (  0.0039643  0.0282465 -0.1674641  )
        52           O   tau(  52) = (  0.0005585  0.0381402  0.0543113  )
        53           H   tau(  53) = ( -0.0215452 -0.0009880  0.0466060  )
        54           H   tau(  54) = ( -0.0296425  0.0712411  0.0626093  )
        55           O   tau(  55) = ( -0.0454908 -0.0677641 -0.1040756  )
        56           H   tau(  56) = ( -0.0008959 -0.0616227 -0.0968445  )
        57           H   tau(  57) = ( -0.0629166 -0.0306374 -0.1239908  )
        58           O   tau(  58) = (  0.0430972  0.0075471  0.1684772  )
        59           H   tau(  59) = (  0.0390393  0.0287024  0.1283094  )
        60           H   tau(  60) = (  0.0138262 -0.0273501  0.1703009  )
        61           O   tau(  61) = ( -0.0789427 -0.0675498  0.0181102  )
        62           H   tau(  62) = ( -0.1198628 -0.0510587  0.0295997  )
        63           H   tau(  63) = ( -0.0733028 -0.0641166 -0.0270228  )
        64           O   tau(  64) = ( -0.0255437  0.3236005  0.1303155  )
        65           H   tau(  65) = ( -0.0122350  0.3105608  0.1719423  )
        66           H   tau(  66) = ( -0.0001573  0.3589354  0.1166375  )
        67           O   tau(  67) = (  0.0692678 -0.3446346 -0.2481963  )
        68           H   tau(  68) = (  0.0467902 -0.3228364 -0.2813655  )
        69           H   tau(  69) = (  0.0398600 -0.3694556 -0.2237355  )
        70           O   tau(  70) = ( -0.1044431  0.4187539 -0.1116943  )
        71           H   tau(  71) = ( -0.0834656  0.4260945 -0.0718867  )
        72           H   tau(  72) = ( -0.1223202  0.3768080 -0.1119496  )
        73           O   tau(  73) = ( -0.1563056 -0.0378594  0.1651489  )
        74           H   tau(  74) = ( -0.1718484 -0.0279611  0.2068668  )
        75           H   tau(  75) = ( -0.1123353 -0.0496362  0.1677477  )
        76           O   tau(  76) = ( -0.0496717  0.1983099  0.3952587  )
        77           H   tau(  77) = ( -0.0181758  0.2284927  0.3819455  )
        78           H   tau(  78) = ( -0.0912028  0.2144499  0.3855929  )
        79           O   tau(  79) = ( -0.3449209 -0.0469097 -0.0096015  )
        80           H   tau(  80) = ( -0.3439817 -0.0686714  0.0304660  )
        81           H   tau(  81) = ( -0.3499909 -0.0772430 -0.0432631  )
        82           O   tau(  82) = ( -0.1395637  0.0748885 -0.2185834  )
        83           H   tau(  83) = ( -0.1840400  0.0741590 -0.2285684  )
        84           H   tau(  84) = ( -0.1160648  0.0892960 -0.2548894  )
        85           O   tau(  85) = (  0.1910477 -0.2907477  0.2939502  )
        86           H   tau(  86) = (  0.1832057 -0.3225400  0.3256832  )
        87           H   tau(  87) = (  0.2238294 -0.2625801  0.3084489  )
        88           O   tau(  88) = ( -0.2730794 -0.1918146 -0.2801071  )
        89           H   tau(  89) = ( -0.2868121 -0.2347955 -0.2866726  )
        90           H   tau(  90) = ( -0.2505790 -0.1889240 -0.2405594  )
        91           O   tau(  91) = (  0.2638604  0.3221415  0.0995856  )
        92           H   tau(  92) = (  0.2277048  0.3085547  0.1238868  )
        93           H   tau(  93) = (  0.2603041  0.3666863  0.0907404  )
        94           O   tau(  94) = ( -0.2441048 -0.3162162 -0.1338800  )
        95           H   tau(  95) = ( -0.2332809 -0.2804892 -0.1600552  )
        96           H   tau(  96) = ( -0.2591415 -0.3014348 -0.0934523  )
        97           O   tau(  97) = (  0.3224023  0.1389472 -0.1720918  )
        98           H   tau(  98) = (  0.3006999  0.1037036 -0.1530110  )
        99           H   tau(  99) = (  0.3368554  0.1271842 -0.2136912  )
       100           O   tau( 100) = ( -0.1343204 -0.1987585  0.1239324  )
       101           H   tau( 101) = ( -0.1661629 -0.1708964  0.1069261  )
       102           H   tau( 102) = ( -0.0939247 -0.1888374  0.1052391  )
       103           O   tau( 103) = ( -0.1182123 -0.1865531 -0.2627041  )
       104           H   tau( 104) = ( -0.1237564 -0.1908252 -0.3077550  )
       105           H   tau( 105) = ( -0.0814503 -0.1609296 -0.2542785  )
       106           O   tau( 106) = (  0.1899991 -0.1909711  0.0259978  )
       107           H   tau( 107) = (  0.2213218 -0.1927219  0.0590530  )
       108           H   tau( 108) = (  0.1527493 -0.1697064  0.0414540  )
       109           O   tau( 109) = (  0.3093626  0.0016199  0.1737204  )
       110           H   tau( 110) = (  0.2748028  0.0048115  0.1441759  )
       111           H   tau( 111) = (  0.3461565  0.0222737  0.1563493  )
       112           O   tau( 112) = ( -0.1246136 -0.1932782 -0.3864629  )
       113           H   tau( 113) = ( -0.0989035 -0.1722049 -0.4176624  )
       114           H   tau( 114) = ( -0.1218871 -0.2383928 -0.3924766  )
       115           O   tau( 115) = (  0.0262276 -0.2443564 -0.3658638  )
       116           H   tau( 116) = (  0.0336593 -0.2370661 -0.4102535  )
       117           H   tau( 117) = ( -0.0011877 -0.2804299 -0.3607710  )
       118           O   tau( 118) = ( -0.0610290  0.1662121  0.2194962  )
       119           H   tau( 119) = ( -0.0160876  0.1692213  0.2265176  )
       120           H   tau( 120) = ( -0.0810993  0.1489322  0.2566092  )
       121           O   tau( 121) = (  0.0999065  0.1830817 -0.2754885  )
       122           H   tau( 122) = (  0.1266699  0.1768354 -0.2390913  )
       123           H   tau( 123) = (  0.1032349  0.1469717 -0.3031546  )
       124           O   tau( 124) = ( -0.3795947  0.1488410 -0.0439607  )
       125           H   tau( 125) = ( -0.3773332  0.1941609 -0.0482693  )
       126           H   tau( 126) = ( -0.4232139  0.1356189 -0.0451416  )
       127           O   tau( 127) = ( -0.0571627  0.0577454 -0.1273054  )
       128           H   tau( 128) = ( -0.0507386  0.0976396 -0.1062230  )
       129           H   tau( 129) = ( -0.0857999  0.0634902 -0.1623120  )
       130           O   tau( 130) = ( -0.0043610 -0.2603643  0.2504541  )
       131           H   tau( 131) = ( -0.0498176 -0.2637154  0.2494055  )
       132           H   tau( 132) = (  0.0109538 -0.2740286  0.2911690  )
       133           O   tau( 133) = (  0.2262458  0.1326098  0.0860899  )
       134           H   tau( 134) = (  0.1985706  0.1664857  0.0732782  )
       135           H   tau( 135) = (  0.2642251  0.1500264  0.1042817  )
       136           O   tau( 136) = (  0.2245589 -0.2080322 -0.0912821  )
       137           H   tau( 137) = (  0.1889960 -0.2248972 -0.1142429  )
       138           H   tau( 138) = (  0.2140268 -0.2048817 -0.0470428  )
       139           O   tau( 139) = (  0.1867620 -0.0716076 -0.0025665  )
       140           H   tau( 140) = (  0.1465030 -0.0612579 -0.0212962  )
       141           H   tau( 141) = (  0.1972484 -0.1149487 -0.0120681  )
       142           O   tau( 142) = (  0.4076620  0.0193558 -0.1264118  )
       143           H   tau( 143) = (  0.3659440  0.0059057 -0.1139238  )
       144           H   tau( 144) = (  0.4293644 -0.0152679 -0.1466735  )
       145           O   tau( 145) = ( -0.0289586 -0.1621470  0.0766977  )
       146           H   tau( 146) = ( -0.0437036 -0.1272908  0.0513021  )
       147           H   tau( 147) = ( -0.0071969 -0.1921657  0.0501623  )
       148           O   tau( 148) = ( -0.2521064  0.2216993 -0.0918064  )
       149           H   tau( 149) = ( -0.2976041  0.2191916 -0.0933794  )
       150           H   tau( 150) = ( -0.2347809  0.2088419 -0.1319788  )
       151           O   tau( 151) = (  0.3529955 -0.1970168 -0.0576114  )
       152           H   tau( 152) = (  0.3111863 -0.2151676 -0.0583819  )
       153           H   tau( 153) = (  0.3604272 -0.1776852 -0.0169968  )
       154           O   tau( 154) = ( -0.2459057  0.2423531  0.0301012  )
       155           H   tau( 155) = ( -0.2464300  0.2289942 -0.0135043  )
       156           H   tau( 156) = ( -0.2028108  0.2488273  0.0435057  )
       157           O   tau( 157) = (  0.2844230 -0.2008284  0.1111207  )
       158           H   tau( 158) = (  0.2717481 -0.1739967  0.1457261  )
       159           H   tau( 159) = (  0.3221288 -0.2237391  0.1227014  )
       160           O   tau( 160) = (  0.1408494  0.0384594 -0.1168645  )
       161           H   tau( 161) = (  0.1839808  0.0302526 -0.1290790  )
       162           H   tau( 162) = (  0.1398008  0.0532317 -0.0737423  )
       163           O   tau( 163) = (  0.3224479 -0.0143423  0.2912146  )
       164           H   tau( 164) = (  0.2933593  0.0142037  0.3116405  )
       165           H   tau( 165) = (  0.3198947 -0.0088711  0.2459860  )
       166           O   tau( 166) = (  0.3550472  0.1539931  0.1197834  )
       167           H   tau( 167) = (  0.3492112  0.1875042  0.1501942  )
       168           H   tau( 168) = (  0.3707769  0.1715009  0.0807555  )
       169           O   tau( 169) = ( -0.1629759  0.0452072  0.0755578  )
       170           H   tau( 170) = ( -0.1665504  0.0193102  0.1128988  )
       171           H   tau( 171) = ( -0.2046300  0.0564688  0.0608312  )
       172           O   tau( 172) = (  0.3658528 -0.1374354  0.0488857  )
       173           H   tau( 173) = (  0.3950326 -0.1140460  0.0749651  )
       174           H   tau( 174) = (  0.3308371 -0.1517471  0.0743724  )
       175           O   tau( 175) = ( -0.3265741 -0.1387348 -0.1008430  )
       176           H   tau( 176) = ( -0.2814412 -0.1324794 -0.0991561  )
       177           H   tau( 177) = ( -0.3355059 -0.1819208 -0.1124192  )
       178           O   tau( 178) = ( -0.2062486 -0.1290052 -0.0490124  )
       179           H   tau( 179) = ( -0.2123262 -0.1195217 -0.0048324  )
       180           H   tau( 180) = ( -0.1921237 -0.0915228 -0.0707924  )
       181           O   tau( 181) = (  0.0502553 -0.0629130 -0.4421962  )
       182           H   tau( 182) = (  0.0894656 -0.0771199 -0.4606661  )
       183           H   tau( 183) = (  0.0452856 -0.0816063 -0.4009114  )
       184           O   tau( 184) = ( -0.0427187 -0.0809725  0.1767296  )
       185           H   tau( 185) = ( -0.0388433 -0.1156007  0.1473218  )
       186           H   tau( 186) = ( -0.0340560 -0.0958405  0.2189491  )
       187           O   tau( 187) = (  0.2177655  0.0016655  0.0871386  )
       188           H   tau( 188) = (  0.2105161  0.0461647  0.0802995  )
       189           H   tau( 189) = (  0.2008047 -0.0220476  0.0521228  )
       190           O   tau( 190) = (  0.1014567  0.3135700  0.0500255  )
       191           H   tau( 191) = (  0.1093444  0.3053176  0.0058911  )
       192           H   tau( 192) = (  0.0781129  0.3524611  0.0543113  )
       193           O   tau( 193) = (  0.1197853  0.1851790  0.0596001  )
       194           H   tau( 194) = (  0.0891465  0.1671696  0.0881416  )
       195           H   tau( 195) = (  0.1097547  0.2289942  0.0521684  )
       196           O   tau( 196) = (  0.4396229  0.0696453 -0.0219117  )
       197           H   tau( 197) = (  0.4340605  0.0578366 -0.0656039  )
       198           H   tau( 198) = (  0.4794260  0.0912566 -0.0169284  )
       199           O   tau( 199) = ( -0.1369512 -0.2760347  0.0240373  )
       200           H   tau( 200) = ( -0.1045707 -0.2513003  0.0035659  )
       201           H   tau( 201) = ( -0.1285437 -0.2780317  0.0688100  )
       202           O   tau( 202) = (  0.3783910  0.1791150 -0.0136502  )
       203           H   tau( 203) = (  0.4004582  0.1397679 -0.0071987  )
       204           H   tau( 204) = (  0.3790749  0.1898295 -0.0579624  )
       205           O   tau( 205) = ( -0.2135162 -0.1047677  0.0800716  )
       206           H   tau( 206) = ( -0.2567113 -0.1173971  0.0873665  )
       207           H   tau( 207) = ( -0.2017257 -0.0727338  0.1103000  )
       208           O   tau( 208) = ( -0.0260179 -0.3120535  0.1267592  )
       209           H   tau( 209) = ( -0.0214494 -0.2818342  0.1605895  )
       210           H   tau( 210) = (  0.0137806 -0.3166493  0.1050112  )
       211           O   tau( 211) = (  0.1638285 -0.2842598 -0.1801847  )
       212           H   tau( 212) = (  0.1248917 -0.3026203 -0.1952350  )
       213           H   tau( 213) = (  0.1801509 -0.2554493 -0.2115210  )
       214           O   tau( 214) = (  0.1853486 -0.0806853 -0.2985725  )
       215           H   tau( 215) = (  0.1461382 -0.1033042 -0.3040665  )
       216           H   tau( 216) = (  0.1900903 -0.0501468 -0.3320927  )
       217           O   tau( 217) = ( -0.0034811  0.0738399  0.3969001  )
       218           H   tau( 218) = ( -0.0230452  0.1148283  0.3925231  )
       219           H   tau( 219) = (  0.0418205  0.0787184  0.3983135  )
       220           O   tau( 220) = (  0.2668240  0.0276994 -0.1363192  )
       221           H   tau( 221) = (  0.2742557 -0.0037099 -0.1685219  )
       222           H   tau( 222) = (  0.2643163  0.0073647 -0.0955770  )
       223           O   tau( 223) = ( -0.0498587  0.1711362 -0.0819081  )
       224           H   tau( 224) = ( -0.0640428  0.1931122 -0.1192445  )
       225           H   tau( 225) = ( -0.0092669  0.1875042 -0.0691374  )
       226           O   tau( 226) = ( -0.2839033  0.2526116  0.2039488  )
       227           H   tau( 227) = ( -0.2954338  0.2967460  0.2044504  )
       228           H   tau( 228) = ( -0.2386017  0.2487362  0.2072772  )
       229           O   tau( 229) = (  0.2155314 -0.2170232 -0.2714034  )
       230           H   tau( 230) = (  0.2165800 -0.2313988 -0.3146578  )
       231           H   tau( 231) = (  0.1953791 -0.1761898 -0.2694246  )
       232           O   tau( 232) = (  0.0158779  0.3783582 -0.2205804  )
       233           H   tau( 233) = (  0.0578694  0.3734341 -0.2034920  )
       234           H   tau( 234) = ( -0.0051407  0.4129180 -0.1995801  )
       235           O   tau( 235) = ( -0.1008047 -0.4108134  0.1090234  )
       236           H   tau( 236) = ( -0.1328432 -0.4077860  0.0767433  )
       237           H   tau( 237) = ( -0.0778621 -0.3714845  0.1113942  )
       238           O   tau( 238) = ( -0.1763758  0.0032157  0.2938590  )
       239           H   tau( 239) = ( -0.1780399 -0.0127101  0.3365344  )
       240           H   tau( 240) = ( -0.1328751  0.0088237  0.2814120  )
       241           O   tau( 241) = ( -0.1202321 -0.2313487  0.2450741  )
       242           H   tau( 242) = ( -0.1296289 -0.2209579  0.2016692  )
       243           H   tau( 243) = ( -0.1590868 -0.2343487  0.2687371  )
       244           O   tau( 244) = ( -0.0839580 -0.0118575 -0.3518712  )
       245           H   tau( 245) = ( -0.0810035 -0.0362636 -0.3902699  )
       246           H   tau( 246) = ( -0.1080404  0.0260580 -0.3597725  )
       247           O   tau( 247) = ( -0.1749669  0.3252419 -0.0761861  )
       248           H   tau( 248) = ( -0.1628756  0.3281143 -0.0323161  )
       249           H   tau( 249) = ( -0.2007546  0.2881744 -0.0824643  )
       250           O   tau( 250) = (  0.1563512  0.2973387  0.1624133  )
       251           H   tau( 251) = (  0.1410774  0.3038130  0.1199658  )
       252           H   tau( 252) = (  0.1211075  0.2966548  0.1913195  )
       253           O   tau( 253) = ( -0.3201409 -0.2274231  0.0630652  )
       254           H   tau( 254) = ( -0.3141773 -0.2613354  0.0929289  )
       255           H   tau( 255) = ( -0.3000752 -0.2382561  0.0235814  )
       256           O   tau( 256) = ( -0.0003260 -0.3880076 -0.0008111  )
       257           H   tau( 257) = (  0.0293280 -0.3546195  0.0083532  )
       258           H   tau( 258) = ( -0.0408996 -0.3699070 -0.0110331  )
       259           O   tau( 259) = (  0.2849701 -0.0613081 -0.2190667  )
       260           H   tau( 260) = (  0.3066726 -0.1012023 -0.2230607  )
       261           H   tau( 261) = (  0.2710641 -0.0473975 -0.2601965  )
       262           O   tau( 262) = ( -0.0571992  0.4435567  0.0009214  )
       263           H   tau( 263) = ( -0.0717663  0.4389974  0.0438704  )
       264           H   tau( 264) = ( -0.0418069  0.4860042 -0.0054981  )
       265           O   tau( 265) = ( -0.0583573 -0.0320143  0.4344691  )
       266           H   tau( 266) = ( -0.0271440 -0.0652245  0.4332380  )
       267           H   tau( 267) = ( -0.0396503  0.0069544  0.4199248  )
       268           O   tau( 268) = ( -0.0152168  0.2409397 -0.1983445  )
       269           H   tau( 269) = (  0.0270483  0.2239789 -0.2001181  )
       270           H   tau( 270) = ( -0.0132152  0.2863507 -0.1946150  )
       271           O   tau( 271) = (  0.1487827  0.2926882 -0.0746223  )
       272           H   tau( 272) = (  0.1433114  0.3231902 -0.1080787  )
       273           H   tau( 273) = (  0.1877194  0.3012142 -0.0525186  )
       274           O   tau( 274) = (  0.0147381  0.0853294 -0.3258328  )
       275           H   tau( 275) = ( -0.0170132  0.0592500 -0.3456477  )
       276           H   tau( 276) = (  0.0043245  0.0910742 -0.2818169  )
       277           O   tau( 277) = ( -0.3497219 -0.1074258  0.0973971  )
       278           H   tau( 278) = ( -0.3868486 -0.1006278  0.1229750  )
       279           H   tau( 279) = ( -0.3435577 -0.1521666  0.0911508  )
       280           O   tau( 280) = (  0.1075206 -0.2575557 -0.0589792  )
       281           H   tau( 281) = (  0.1242534 -0.2947235 -0.0794004  )
       282           H   tau( 282) = (  0.1201044 -0.2573232 -0.0151593  )
       283           O   tau( 283) = (  0.0960767 -0.3319870  0.0738709  )
       284           H   tau( 284) = (  0.1293143 -0.3109821  0.0969867  )
       285           H   tau( 285) = (  0.1131742 -0.3683887  0.0523964  )
       286           O   tau( 286) = ( -0.3014658 -0.0018771 -0.3190713  )
       287           H   tau( 287) = ( -0.3290179 -0.0322377 -0.2991333  )
       288           H   tau( 288) = ( -0.2677358 -0.0237710 -0.3405549  )
       289           O   tau( 289) = ( -0.0997515  0.4251370  0.1089778  )
       290           H   tau( 290) = ( -0.0785323  0.3906228  0.1298596  )
       291           H   tau( 291) = ( -0.1065814  0.4590129  0.1387503  )
       292           O   tau( 292) = (  0.0635230  0.3159408  0.2468978  )
       293           H   tau( 293) = (  0.0640245  0.2934177  0.2865185  )
       294           H   tau( 294) = (  0.0487507  0.3585251  0.2537824  )
       295           O   tau( 295) = ( -0.0869671 -0.2900638 -0.1065148  )
       296           H   tau( 296) = ( -0.1313067 -0.2980062 -0.1135864  )
       297           H   tau( 297) = ( -0.0715885 -0.2607701 -0.1378831  )
       298           O   tau( 298) = ( -0.0469680  0.0337633  0.2806825  )
       299           H   tau( 299) = ( -0.0184038  0.0537788  0.3099991  )
       300           H   tau( 300) = ( -0.0230041  0.0106018  0.2495422  )
       301           O   tau( 301) = ( -0.1453495  0.0911198 -0.3902289  )
       302           H   tau( 302) = ( -0.1399786  0.0930803 -0.4354621  )
       303           H   tau( 303) = ( -0.1701432  0.1267738 -0.3763183  )
       304           O   tau( 304) = ( -0.2442871 -0.2438093 -0.0304240  )
       305           H   tau( 305) = ( -0.2055282 -0.2597260 -0.0124511  )
       306           H   tau( 306) = ( -0.2433844 -0.1982250 -0.0305562  )
       307           O   tau( 307) = (  0.1223841  0.1010135  0.4240282  )
       308           H   tau( 308) = (  0.1528405  0.0745694  0.4453203  )
       309           H   tau( 309) = (  0.1441321  0.1294638  0.3957603  )
       310           O   tau( 310) = (  0.1665185 -0.1098149 -0.1650021  )
       311           H   tau( 311) = (  0.1861692 -0.0849574 -0.1977974  )
       312           H   tau( 312) = (  0.1978867 -0.1362636 -0.1451370  )
       313           O   tau( 313) = ( -0.0975129  0.1712730 -0.2883413  )
       314           H   tau( 314) = ( -0.0877012  0.2133557 -0.2737833  )
       315           H   tau( 315) = ( -0.0764943  0.1636133 -0.3280714  )
       316           O   tau( 316) = ( -0.2318401 -0.2124183  0.3049838  )
       317           H   tau( 317) = ( -0.2311699 -0.1923344  0.3459267  )
       318           H   tau( 318) = ( -0.2642981 -0.1933739  0.2792235  )
       319           O   tau( 319) = (  0.0427780  0.4195290  0.0883240  )
       320           H   tau( 320) = (  0.0332034  0.4548183  0.1154977  )
       321           H   tau( 321) = (  0.0183399  0.4228117  0.0499799  )
       322           O   tau( 322) = (  0.4045160  0.0432923  0.1051024  )
       323           H   tau( 323) = (  0.4017804  0.0437482  0.0596001  )
       324           H   tau( 324) = (  0.3910204  0.0836425  0.1215160  )
       325           O   tau( 325) = (  0.2088748  0.0194925 -0.3760311  )
       326           H   tau( 326) = (  0.1738134  0.0476237 -0.3837181  )
       327           H   tau( 327) = (  0.2479027  0.0429276 -0.3781147  )
       328           O   tau( 328) = ( -0.2886860 -0.0501696  0.2437063  )
       329           H   tau( 329) = ( -0.3013883 -0.0266343  0.2067756  )
       330           H   tau( 330) = ( -0.2607236 -0.0246510  0.2691018  )
       331           O   tau( 331) = ( -0.3328888  0.0663626 -0.1429303  )
       332           H   tau( 332) = ( -0.3542356  0.0798582 -0.1049829  )
       333           H   tau( 333) = ( -0.3395454  0.0216354 -0.1489897  )
       334           O   tau( 334) = ( -0.1901906 -0.0000853 -0.0818579  )
       335           H   tau( 335) = ( -0.1486960  0.0187631 -0.0807865  )
       336           H   tau( 336) = ( -0.2197077  0.0291583 -0.1005923  )
       337           O   tau( 337) = ( -0.3854306 -0.0560056 -0.1630233  )
       338           H   tau( 338) = ( -0.3653650 -0.0909575 -0.1417084  )
       339           H   tau( 339) = ( -0.4269161 -0.0492304 -0.1453695  )
       340           O   tau( 340) = (  0.1810628 -0.2831200  0.1711216  )
       341           H   tau( 341) = (  0.1852574 -0.2874331  0.2163047  )
       342           H   tau( 342) = (  0.2222336 -0.2855911  0.1516988  )
       343           O   tau( 343) = (  0.2695596  0.2688428 -0.0081744  )
       344           H   tau( 344) = (  0.2691036  0.2945119  0.0295085  )
       345           H   tau( 345) = (  0.3120982  0.2544809 -0.0162171  )
       346           O   tau( 346) = ( -0.0134979 -0.2461346 -0.0127110  )
       347           H   tau( 347) = ( -0.0404299 -0.2629859 -0.0454106  )
       348           H   tau( 348) = (  0.0297839 -0.2462850 -0.0270866  )
       349           O   tau( 349) = ( -0.2771098  0.0676392  0.0251315  )
       350           H   tau( 350) = ( -0.2971071  0.0991898 -0.0009935  )
       351           H   tau( 351) = ( -0.2930310  0.0263771  0.0139612  )
       352           O   tau( 352) = ( -0.3322095  0.1986746  0.1075188  )
       353           H   tau( 353) = ( -0.3176469  0.2142675  0.1478234  )
       354           H   tau( 354) = ( -0.3023731  0.2103009  0.0750563  )
       355           O   tau( 355) = (  0.1166393  0.0707851 -0.0034783  )
       356           H   tau( 356) = (  0.1310012  0.1081261  0.0183837  )
       357           H   tau( 357) = (  0.0799822  0.0538700  0.0177454  )
       358           O   tau( 358) = ( -0.0306821 -0.1832111 -0.1567816  )
       359           H   tau( 359) = ( -0.0348539 -0.1393731 -0.1449683  )
       360           H   tau( 360) = (  0.0134615 -0.1946505 -0.1574199  )
       361           O   tau( 361) = ( -0.1807983 -0.4088483 -0.0016318  )
       362           H   tau( 362) = ( -0.1881298 -0.3702945 -0.0248297  )
       363           H   tau( 363) = ( -0.2081498 -0.4100793  0.0348429  )
       364           O   tau( 364) = (  0.0270483 -0.4151858 -0.1270683  )
       365           H   tau( 365) = ( -0.0032941 -0.4228181 -0.0939037  )
       366           H   tau( 366) = (  0.0668969 -0.4028801 -0.1086668  )
       367           O   tau( 367) = (  0.1706219 -0.0437683  0.1992983  )
       368           H   tau( 368) = (  0.1997105 -0.0371253  0.1647841  )
       369           H   tau( 369) = (  0.1278097 -0.0408503  0.1838422  )
       370           O   tau( 370) = ( -0.0145511 -0.0803068 -0.2637209  )
       371           H   tau( 371) = ( -0.0379998 -0.0562609 -0.2945511  )
       372           H   tau( 372) = (  0.0098596 -0.0519386 -0.2377007  )
       373           O   tau( 373) = ( -0.1226485  0.2685693  0.0566822  )
       374           H   tau( 374) = ( -0.0911526  0.2920043  0.0798436  )
       375           H   tau( 375) = ( -0.1055100  0.2281279  0.0443720  )
       376           O   tau( 376) = (  0.1518830  0.0903903  0.2049063  )
       377           H   tau( 377) = (  0.1723088  0.1011047  0.1656048  )
       378           H   tau( 378) = (  0.1311380  0.0499945  0.2007573  )
       379           O   tau( 379) = (  0.0937514 -0.1841367  0.2062741  )
       380           H   tau( 380) = (  0.1224297 -0.2193621  0.2023075  )
       381           H   tau( 381) = (  0.0523982 -0.1994378  0.2178092  )
       382           O   tau( 382) = (  0.1444057  0.3563366 -0.1963612  )
       383           H   tau( 383) = (  0.1400743  0.3661847 -0.2406597  )
       384           H   tau( 384) = (  0.1882665  0.3595281 -0.1843245  )
       385           O   tau( 385) = (  0.2981466 -0.0299353 -0.0294210  )
       386           H   tau( 386) = (  0.2584804 -0.0486924 -0.0170697  )
       387           H   tau( 387) = (  0.3300164 -0.0400524  0.0015598  )
       388           O   tau( 388) = (  0.0885538 -0.1036096  0.3120964  )
       389           H   tau( 389) = (  0.1037364 -0.1291328  0.2775366  )
       390           H   tau( 390) = (  0.1066088 -0.0618461  0.3092696  )
       391           O   tau( 391) = ( -0.2118976 -0.1895988 -0.1764050  )
       392           H   tau( 392) = ( -0.1745292 -0.1904651 -0.2025117  )
       393           H   tau( 393) = ( -0.2000616 -0.1810865 -0.1332052  )
       394           O   tau( 394) = (  0.0927484 -0.1163439  0.0943423  )
       395           H   tau( 395) = (  0.0482492 -0.1185916  0.0846765  )
       396           H   tau( 396) = (  0.0998153 -0.1306283  0.1370633  )
       397           O   tau( 397) = (  0.0849519 -0.0767050 -0.0784840  )
       398           H   tau( 398) = (  0.0958487 -0.0348639 -0.0929554  )
       399           H   tau( 399) = (  0.1104386 -0.1074896 -0.1004464  )
       400           O   tau( 400) = (  0.0083413  0.1492514  0.1033242  )
       401           H   tau( 401) = ( -0.0073428  0.1415917  0.1454525  )
       402           H   tau( 402) = ( -0.0266835  0.1575038  0.0753299  )
       403           O   tau( 403) = ( -0.3313705  0.1418196  0.2483568  )
       404           H   tau( 404) = ( -0.3284845  0.1327465  0.2929472  )
       405           H   tau( 405) = ( -0.3033580  0.1762882  0.2380071  )
       406           O   tau( 406) = ( -0.2592327  0.0900255 -0.2429531  )
       407           H   tau( 407) = ( -0.2815552  0.0624871 -0.2716496  )
       408           H   tau( 408) = ( -0.2830415  0.0941745 -0.2042944  )
       409           O   tau( 409) = ( -0.1431382  0.3303939  0.2666854  )
       410           H   tau( 410) = ( -0.1528587  0.3014877  0.2328095  )
       411           H   tau( 411) = ( -0.1565791  0.3124301  0.3063972  )
       412           O   tau( 412) = (  0.1113049  0.1012415 -0.4020330  )
       413           H   tau( 413) = (  0.1105298  0.1275945 -0.4392463  )
       414           H   tau( 414) = (  0.0687206  0.0948584 -0.3870373  )
       415           O   tau( 415) = ( -0.0497538 -0.1246145  0.2965034  )
       416           H   tau( 416) = ( -0.0224114 -0.1174199  0.3322943  )
       417           H   tau( 417) = ( -0.0748575 -0.1619646  0.3038440  )

     number of k points=     1
                       cart. coord. in units 2pi/alat
        k(    1) = (   0.0000000   0.0000000   0.0000000), wk =   2.0000000

                       cryst. coord.
        k(    1) = (   0.0000000   0.0000000   0.0000000), wk =   2.0000000

     Dense  grid:  6321993 G-vectors     FFT dimensions: ( 300, 300, 300)

     Smooth grid:  2235327 G-vectors     FFT dimensions: ( 216, 216, 216)

     Dynamical RAM for                 wfc:      49.38 MB

     Dynamical RAM for     wfc (w. buffer):      49.38 MB

     Dynamical RAM for           str. fact:       4.02 MB

     Dynamical RAM for           local pot:       0.00 MB

     Dynamical RAM for          nlocal pot:     148.13 MB

     Dynamical RAM for                qrad:       1.00 MB

     Dynamical RAM for          rho,v,vnew:      19.42 MB

     Dynamical RAM for               rhoin:       6.47 MB

     Dynamical RAM for            rho*nmix:      32.16 MB

     Dynamical RAM for           G-vectors:       7.89 MB

     Dynamical RAM for          h,s,v(r/c):       1.77 MB

     Dynamical RAM for          <psi|beta>:       7.08 MB

     Dynamical RAM for                 psi:      98.75 MB

     Dynamical RAM for                hpsi:      98.75 MB

     Dynamical RAM for                spsi:      98.75 MB

     Dynamical RAM for      wfcinit/wfcrot:     164.06 MB

     Dynamical RAM for           addusdens:     645.15 MB

     Dynamical RAM for          addusforce:    1759.83 MB

     Estimated static dynamical RAM per process >     296.82 MB

     Estimated max dynamical RAM per process >       2.01 GB

     Estimated total dynamical RAM >      96.41 GB

     Initial potential from superposition of free atoms

     starting charge 1111.99715, renormalised to 1112.00000

     negative rho (up, down):  3.119E-03 0.000E+00
     Starting wfcs are  834 randomized atomic wfcs
     Checking if some PAW data can be deallocated... 

     total cpu time spent up to now is        8.4 secs

     Self-consistent Calculation

     iteration #  1     ecut=    60.00 Ry     beta= 0.70
     Davidson diagonalization with overlap
     ethr =  1.00E-02,  avg # of iterations =  2.0

     negative rho (up, down):  6.784E-03 0.000E+00

     total cpu time spent up to now is       17.8 secs

     total energy              =   -6100.77536226 Ry
     estimated scf accuracy    <      52.27509690 Ry

     iteration #  2     ecut=    60.00 Ry     beta= 0.70
     Davidson diagonalization with overlap
     ethr =  4.70E-03,  avg # of iterations =  3.0

     negative rho (up, down):  6.707E-03 0.000E+00

     total cpu time spent up to now is       29.3 secs

     total energy              =   -6116.99361426 Ry
     estimated scf accuracy    <      41.10769032 Ry

     iteration #  3     ecut=    60.00 Ry     beta= 0.70
     Davidson diagonalization with overlap
     ethr =  3.70E-03,  avg # of iterations =  2.0

     negative rho (up, down):  6.307E-03 0.000E+00

     total cpu time spent up to now is       38.6 secs

     total energy              =   -6122.75475118 Ry
     estimated scf accuracy    <       1.50985832 Ry

     iteration #  4     ecut=    60.00 Ry     beta= 0.70
     Davidson diagonalization with overlap
     ethr =  1.36E-04,  avg # of iterations =  4.0

     negative rho (up, down):  7.580E-03 0.000E+00

     total cpu time spent up to now is       52.0 secs

     total energy              =   -6124.07910561 Ry
     estimated scf accuracy    <       1.84862093 Ry

     iteration #  5     ecut=    60.00 Ry     beta= 0.70
     Davidson diagonalization with overlap
     ethr =  1.36E-04,  avg # of iterations =  2.0

     negative rho (up, down):  7.868E-03 0.000E+00

     total cpu time spent up to now is       60.0 secs

     total energy              =   -6124.11775163 Ry
     estimated scf accuracy    <       0.44015907 Ry

     iteration #  6     ecut=    60.00 Ry     beta= 0.70
     Davidson diagonalization with overlap
     ethr =  3.96E-05,  avg # of iterations =  2.0

     negative rho (up, down):  7.953E-03 0.000E+00

     total cpu time spent up to now is       67.5 secs

     total energy              =   -6124.10066884 Ry
     estimated scf accuracy    <       0.19567651 Ry

     iteration #  7     ecut=    60.00 Ry     beta= 0.70
     Davidson diagonalization with overlap
     ethr =  1.76E-05,  avg # of iterations =  2.0

     negative rho (up, down):  8.052E-03 0.000E+00

     total cpu time spent up to now is       78.8 secs

     total energy              =   -6124.08067909 Ry
     estimated scf accuracy    <       0.07816751 Ry

     iteration #  8     ecut=    60.00 Ry     beta= 0.70
     Davidson diagonalization with overlap
     ethr =  7.03E-06,  avg # of iterations =  3.0

     negative rho (up, down):  7.980E-03 0.000E+00

     total cpu time spent up to now is       88.6 secs

     total energy              =   -6124.09933202 Ry
     estimated scf accuracy    <       0.00168934 Ry

     iteration #  9     ecut=    60.00 Ry     beta= 0.70
     Davidson diagonalization with overlap
     ethr =  1.52E-07,  avg # of iterations =  5.0

     negative rho (up, down):  7.889E-03 0.000E+00

     total cpu time spent up to now is      101.6 secs

     total energy              =   -6124.10143334 Ry
     estimated scf accuracy    <       0.00269614 Ry

     iteration # 10     ecut=    60.00 Ry     beta= 0.70
     Davidson diagonalization with overlap
     ethr =  1.52E-07,  avg # of iterations =  2.0

     negative rho (up, down):  7.815E-03 0.000E+00

     total cpu time spent up to now is      109.1 secs

     total energy              =   -6124.10066682 Ry
     estimated scf accuracy    <       0.00180229 Ry

     iteration # 11     ecut=    60.00 Ry     beta= 0.70
     Davidson diagonalization with overlap
     ethr =  1.52E-07,  avg # of iterations =  2.0

     negative rho (up, down):  7.799E-03 0.000E+00

     total cpu time spent up to now is      118.4 secs

     total energy              =   -6124.10092974 Ry
     estimated scf accuracy    <       0.00005839 Ry

     iteration # 12     ecut=    60.00 Ry     beta= 0.70
     Davidson diagonalization with overlap
     ethr =  5.25E-09,  avg # of iterations =  5.0

     negative rho (up, down):  7.803E-03 0.000E+00

     total cpu time spent up to now is      130.5 secs

     total energy              =   -6124.10096609 Ry
     estimated scf accuracy    <       0.00002758 Ry

     iteration # 13     ecut=    60.00 Ry     beta= 0.70
     Davidson diagonalization with overlap
     ethr =  2.48E-09,  avg # of iterations =  2.0

     negative rho (up, down):  7.808E-03 0.000E+00

     total cpu time spent up to now is      138.0 secs

     total energy              =   -6124.10096135 Ry
     estimated scf accuracy    <       0.00001529 Ry

     iteration # 14     ecut=    60.00 Ry     beta= 0.70
     Davidson diagonalization with overlap
     ethr =  1.38E-09,  avg # of iterations =  2.0

     negative rho (up, down):  7.809E-03 0.000E+00

     total cpu time spent up to now is      146.9 secs

     total energy              =   -6124.10096275 Ry
     estimated scf accuracy    <       0.00000138 Ry

     iteration # 15     ecut=    60.00 Ry     beta= 0.70
     Davidson diagonalization with overlap
     ethr =  1.24E-10,  avg # of iterations =  3.0

     negative rho (up, down):  7.809E-03 0.000E+00

     total cpu time spent up to now is      156.6 secs

     total energy              =   -6124.10096303 Ry
     estimated scf accuracy    <       0.00000013 Ry

     iteration # 16     ecut=    60.00 Ry     beta= 0.70
     Davidson diagonalization with overlap
     ethr =  1.20E-11,  avg # of iterations =  4.0

     negative rho (up, down):  7.808E-03 0.000E+00

     total cpu time spent up to now is      168.2 secs

     total energy              =   -6124.10096310 Ry
     estimated scf accuracy    <       0.00000020 Ry

     iteration # 17     ecut=    60.00 Ry     beta= 0.70
     Davidson diagonalization with overlap
     ethr =  1.20E-11,  avg # of iterations =  2.0

     negative rho (up, down):  7.808E-03 0.000E+00

     total cpu time spent up to now is      176.3 secs

     total energy              =   -6124.10096310 Ry
     estimated scf accuracy    <       0.00000007 Ry

     iteration # 18     ecut=    60.00 Ry     beta= 0.70
     Davidson diagonalization with overlap
     ethr =  5.98E-12,  avg # of iterations =  3.0

     negative rho (up, down):  7.808E-03 0.000E+00

     total cpu time spent up to now is      186.3 secs

     total energy              =   -6124.10096312 Ry
     estimated scf accuracy    <          2.6E-09 Ry

     iteration # 19     ecut=    60.00 Ry     beta= 0.70
     Davidson diagonalization with overlap
     ethr =  2.37E-13,  avg # of iterations =  4.0

     negative rho (up, down):  7.808E-03 0.000E+00

     total cpu time spent up to now is      196.3 secs

     total energy              =   -6124.10096312 Ry
     estimated scf accuracy    <          1.7E-09 Ry

     iteration # 20     ecut=    60.00 Ry     beta= 0.70
     Davidson diagonalization with overlap
     ethr =  1.53E-13,  avg # of iterations =  3.0

     negative rho (up, down):  7.808E-03 0.000E+00

     total cpu time spent up to now is      204.5 secs

     total energy              =   -6124.10096311 Ry
     estimated scf accuracy    <          3.3E-10 Ry

     iteration # 21     ecut=    60.00 Ry     beta= 0.70
     Davidson diagonalization with overlap
     ethr =  1.00E-13,  avg # of iterations =  2.0

     negative rho (up, down):  7.808E-03 0.000E+00

     total cpu time spent up to now is      212.1 secs

     End of self-consistent calculation

          k = 0.0000 0.0000 0.0000 (279570 PWs)   bands (ev):

   -24.9280 -24.9251 -24.8798 -24.8092 -24.6329 -24.6015 -24.6005 -24.5225
   -24.4204 -24.4122 -24.3828 -24.3705 -24.3624 -24.3375 -24.1818 -24.1792
   -24.1573 -24.0964 -24.0788 -24.0570 -24.0352 -23.9906 -23.9847 -23.9601
   -23.9083 -23.8890 -23.8854 -23.8771 -23.8619 -23.8455 -23.8406 -23.8344
   -23.7866 -23.7817 -23.7751 -23.7713 -23.7414 -23.7136 -23.7008 -23.6872
   -23.6745 -23.6647 -23.6367 -23.6193 -23.6072 -23.5890 -23.5727 -23.5710
   -23.5467 -23.5349 -23.5211 -23.5112 -23.4444 -23.4434 -23.4399 -23.4277
   -23.4158 -23.4118 -23.4071 -23.3967 -23.3909 -23.3640 -23.3539 -23.3404
   -23.2965 -23.2947 -23.2603 -23.2533 -23.2493 -23.2356 -23.2215 -23.2027
   -23.1833 -23.1262 -23.1181 -23.1020 -23.0977 -23.0872 -23.0715 -23.0651
   -23.0564 -23.0547 -23.0525 -23.0271 -22.9871 -22.9731 -22.9656 -22.9598
   -22.9549 -22.9462 -22.9338 -22.9304 -22.9239 -22.8655 -22.8461 -22.8327
   -22.8053 -22.8034 -22.7877 -22.7757 -22.7617 -22.7572 -22.7464 -22.7379
   -22.7360 -22.7205 -22.7045 -22.6940 -22.6822 -22.6575 -22.6340 -22.6037
   -22.5976 -22.5840 -22.5751 -22.5295 -22.5168 -22.4710 -22.4648 -22.4421
   -22.4395 -22.4289 -22.4158 -22.4073 -22.3777 -22.3559 -22.3388 -22.3109
[...]
     atom  209 type  1   force =     0.00000001    0.00000002    0.00000002
     atom  210 type  1   force =     0.00000003    0.00000000   -0.00000001
     atom  211 type  2   force =    -0.00000029    0.00000004   -0.00000016
     atom  212 type  1   force =    -0.00000012   -0.00000003   -0.00000003
     atom  213 type  1   force =     0.00000001    0.00000008   -0.00000010
     atom  214 type  2   force =    -0.00000015   -0.00000002   -0.00000023
     atom  215 type  1   force =    -0.00000006   -0.00000007   -0.00000003
     atom  216 type  1   force =     0.00000001    0.00000004   -0.00000008
     atom  217 type  2   force =     0.00000006    0.00000023   -0.00000012
     atom  218 type  1   force =    -0.00000001    0.00000002   -0.00000002
     atom  219 type  1   force =     0.00000004    0.00000001   -0.00000002
     atom  220 type  2   force =    -0.00000010   -0.00000018   -0.00000001
     atom  221 type  1   force =     0.00000001   -0.00000004   -0.00000004
     atom  222 type  1   force =    -0.00000002   -0.00000002    0.00000002
     atom  223 type  2   force =     0.00000002    0.00000004   -0.00000020
     atom  224 type  1   force =    -0.00000003    0.00000003   -0.00000006
     atom  225 type  1   force =     0.00000002   -0.00000000   -0.00000000
     atom  226 type  2   force =     0.00000024    0.00000028    0.00000013
     atom  227 type  1   force =    -0.00000001    0.00000012    0.00000003
     atom  228 type  1   force =     0.00000009    0.00000002    0.00000004
     atom  229 type  2   force =    -0.00000028    0.00000018   -0.00000050
     atom  230 type  1   force =    -0.00000002   -0.00000003   -0.00000014
     atom  231 type  1   force =    -0.00000006    0.00000007   -0.00000003
     atom  232 type  2   force =     0.00000030    0.00000019    0.00000036
     atom  233 type  1   force =     0.00000015    0.00000000    0.00000007
     atom  234 type  1   force =    -0.00000004    0.00000012    0.00000009
     atom  235 type  2   force =    -0.00000015    0.00000018   -0.00000013
     atom  236 type  1   force =    -0.00000008    0.00000003   -0.00000002
     atom  237 type  1   force =     0.00000003    0.00000008    0.00000000
     atom  238 type  2   force =     0.00000014   -0.00000009    0.00000039
     atom  239 type  1   force =    -0.00000001   -0.00000004    0.00000013
     atom  240 type  1   force =     0.00000007   -0.00000000   -0.00000001
     atom  241 type  2   force =    -0.00000033    0.00000000   -0.00000002
     atom  242 type  1   force =    -0.00000004    0.00000001   -0.00000007
     atom  243 type  1   force =    -0.00000006   -0.00000002    0.00000005
     atom  244 type  2   force =     0.00000005    0.00000001   -0.00000030
     atom  245 type  1   force =     0.00000001   -0.00000003   -0.00000006
     atom  246 type  1   force =     0.00000001    0.00000000   -0.00000001
     atom  247 type  2   force =    -0.00000007   -0.00000038    0.00000038
     atom  248 type  1   force =     0.00000002   -0.00000003    0.00000012
     atom  249 type  1   force =    -0.00000005   -0.00000009    0.00000002
     atom  250 type  2   force =    -0.00000034    0.00000010   -0.00000022
     atom  251 type  1   force =    -0.00000003    0.00000003   -0.00000006
     atom  252 type  1   force =    -0.00000009    0.00000001    0.00000005
     atom  253 type  2   force =     0.00000013   -0.00000035    0.00000014
     atom  254 type  1   force =     0.00000001   -0.00000009    0.00000007
     atom  255 type  1   force =     0.00000002   -0.00000004   -0.00000005
     atom  256 type  2   force =     0.00000003    0.00000030   -0.00000009
     atom  257 type  1   force =     0.00000008    0.00000007   -0.00000001
     atom  258 type  1   force =    -0.00000006    0.00000005   -0.00000003
     atom  259 type  2   force =     0.00000005    0.00000004   -0.00000010
     atom  260 type  1   force =     0.00000002    0.00000000   -0.00000001
     atom  261 type  1   force =     0.00000003    0.00000002    0.00000000
     atom  262 type  2   force =     0.00000052    0.00000045    0.00000019
     atom  263 type  1   force =     0.00000006    0.00000003    0.00000008
     atom  264 type  1   force =     0.00000009    0.00000010    0.00000001
     atom  265 type  2   force =     0.00000044   -0.00000040   -0.00000005
     atom  266 type  1   force =     0.00000011   -0.00000014   -0.00000001
     atom  267 type  1   force =     0.00000007    0.00000008   -0.00000004
     atom  268 type  2   force =     0.00000028    0.00000026    0.00000002
     atom  269 type  1   force =     0.00000008   -0.00000001    0.00000001
     atom  270 type  1   force =     0.00000002    0.00000008    0.00000002
     atom  271 type  2   force =     0.00000007    0.00000032    0.00000000
     atom  272 type  1   force =     0.00000001    0.00000006   -0.00000002
     atom  273 type  1   force =     0.00000002    0.00000005    0.00000001
     atom  274 type  2   force =    -0.00000039   -0.00000015    0.00000014
     atom  275 type  1   force =    -0.00000008   -0.00000005   -0.00000003
     atom  276 type  1   force =    -0.00000005    0.00000000    0.00000009
     atom  277 type  2   force =    -0.00000025   -0.00000026    0.00000016
     atom  278 type  1   force =    -0.00000006   -0.00000002    0.00000005
     atom  279 type  1   force =    -0.00000002   -0.00000004    0.00000002
     atom  280 type  2   force =     0.00000014   -0.00000031    0.00000029
     atom  281 type  1   force =     0.00000003   -0.00000012   -0.00000000
     atom  282 type  1   force =     0.00000002   -0.00000003    0.00000010
     atom  283 type  2   force =     0.00000042   -0.00000027   -0.00000024
     atom  284 type  1   force =     0.00000011    0.00000003    0.00000002
     atom  285 type  1   force =     0.00000008   -0.00000011   -0.00000008
     atom  286 type  2   force =     0.00000004   -0.00000014   -0.00000002
     atom  287 type  1   force =    -0.00000004   -0.00000004    0.00000002
     atom  288 type  1   force =     0.00000004   -0.00000004   -0.00000004
     atom  289 type  2   force =     0.00000037    0.00000008    0.00000064
     atom  290 type  1   force =     0.00000010   -0.00000008    0.00000012
     atom  291 type  1   force =     0.00000001    0.00000011    0.00000015
     atom  292 type  2   force =    -0.00000013    0.00000012    0.00000016
     atom  293 type  1   force =    -0.00000001   -0.00000002    0.00000007
     atom  294 type  1   force =    -0.00000003    0.00000006    0.00000002
     atom  295 type  2   force =    -0.00000013    0.00000015   -0.00000009
     atom  296 type  1   force =    -0.00000007    0.00000001   -0.00000001
     atom  297 type  1   force =     0.00000001    0.00000002   -0.00000004
     atom  298 type  2   force =     0.00000037   -0.00000008   -0.00000005
     atom  299 type  1   force =     0.00000011    0.00000005    0.00000008
     atom  300 type  1   force =     0.00000010   -0.00000007   -0.00000009
     atom  301 type  2   force =    -0.00000017    0.00000043   -0.00000040
     atom  302 type  1   force =     0.00000000    0.00000004   -0.00000018
     atom  303 type  1   force =    -0.00000010    0.00000016    0.00000001
     atom  304 type  2   force =     0.00000012    0.00000017    0.00000007
     atom  305 type  1   force =     0.00000006   -0.00000003    0.00000003
     atom  306 type  1   force =    -0.00000001    0.00000008    0.00000000
     atom  307 type  2   force =     0.00000044   -0.00000001   -0.00000004
     atom  308 type  1   force =     0.00000009   -0.00000004    0.00000004
     atom  309 type  1   force =     0.00000007    0.00000006   -0.00000006
     atom  310 type  2   force =     0.00000017    0.00000001    0.00000012
     atom  311 type  1   force =     0.00000003    0.00000003   -0.00000001
     atom  312 type  1   force =     0.00000002    0.00000001    0.00000002
     atom  313 type  2   force =     0.00000018    0.00000020   -0.00000025
     atom  314 type  1   force =     0.00000001    0.00000007   -0.00000001
     atom  315 type  1   force =     0.00000002    0.00000001   -0.00000006
     atom  316 type  2   force =     0.00000001    0.00000030    0.00000051
     atom  317 type  1   force =     0.00000001    0.00000006    0.00000013
     atom  318 type  1   force =    -0.00000005    0.00000005   -0.00000001
     atom  319 type  2   force =    -0.00000018    0.00000010   -0.00000007
     atom  320 type  1   force =    -0.00000000    0.00000000    0.00000001
     atom  321 type  1   force =     0.00000004    0.00000001    0.00000003
     atom  322 type  2   force =    -0.00000017    0.00000023   -0.00000021
     atom  323 type  1   force =    -0.00000002    0.00000001   -0.00000014
     atom  324 type  1   force =    -0.00000004    0.00000012    0.00000005
     atom  325 type  2   force =     0.00000037    0.00000035   -0.00000007
     atom  326 type  1   force =    -0.00000003    0.00000008   -0.00000002
     atom  327 type  1   force =     0.00000013    0.00000008   -0.00000001
     atom  328 type  2   force =     0.00000009    0.00000015    0.00000006
     atom  329 type  1   force =    -0.00000001    0.00000002   -0.00000003
     atom  330 type  1   force =     0.00000003    0.00000003    0.00000005
     atom  331 type  2   force =    -0.00000014   -0.00000007    0.00000015
     atom  332 type  1   force =    -0.00000004    0.00000001    0.00000004
     atom  333 type  1   force =    -0.00000001   -0.00000004    0.00000000
     atom  334 type  2   force =     0.00000023    0.00000053   -0.00000022
     atom  335 type  1   force =     0.00000014    0.00000009   -0.00000000
     atom  336 type  1   force =    -0.00000008    0.00000013   -0.00000007
     atom  337 type  2   force =    -0.00000045    0.00000000    0.00000030
     atom  338 type  1   force =    -0.00000003   -0.00000003    0.00000002
     atom  339 type  1   force =    -0.00000009    0.00000002    0.00000004
     atom  340 type  2   force =     0.00000037   -0.00000004   -0.00000009
     atom  341 type  1   force =     0.00000004   -0.00000001   -0.00000001
     atom  342 type  1   force =     0.00000008   -0.00000001   -0.00000002
     atom  343 type  2   force =     0.00000027    0.00000010    0.00000010
     atom  344 type  1   force =     0.00000001    0.00000006    0.00000002
     atom  345 type  1   force =     0.00000009   -0.00000001   -0.00000002
     atom  346 type  2   force =     0.00000021   -0.00000011   -0.00000023
     atom  347 type  1   force =    -0.00000002   -0.00000002   -0.00000003
     atom  348 type  1   force =     0.00000006   -0.00000001   -0.00000001
     atom  349 type  2   force =    -0.00000021   -0.00000005   -0.00000024
     atom  350 type  1   force =    -0.00000004    0.00000005   -0.00000008
     atom  351 type  1   force =    -0.00000002   -0.00000005   -0.00000003
     atom  352 type  2   force =     0.00000024    0.00000020    0.00000004
     atom  353 type  1   force =     0.00000005    0.00000005    0.00000011
     atom  354 type  1   force =     0.00000007    0.00000003   -0.00000008
     atom  355 type  2   force =    -0.00000001    0.00000010    0.00000018
     atom  356 type  1   force =     0.00000002    0.00000005    0.00000004
     atom  357 type  1   force =    -0.00000002   -0.00000002    0.00000003
     atom  358 type  2   force =     0.00000046    0.00000001    0.00000011
     atom  359 type  1   force =     0.00000002    0.00000011    0.00000004
     atom  360 type  1   force =     0.00000015   -0.00000004    0.00000000
     atom  361 type  2   force =    -0.00000049    0.00000047    0.00000039
     atom  362 type  1   force =    -0.00000007    0.00000020   -0.00000008
     atom  363 type  1   force =    -0.00000016    0.00000004    0.00000020
     atom  364 type  2   force =     0.00000038    0.00000010    0.00000048
     atom  365 type  1   force =    -0.00000008   -0.00000002    0.00000015
     atom  366 type  1   force =     0.00000018    0.00000005    0.00000011
     atom  367 type  2   force =    -0.00000022    0.00000016   -0.00000017
     atom  368 type  1   force =     0.00000000    0.00000000   -0.00000001
     atom  369 type  1   force =    -0.00000002    0.00000002   -0.00000001
     atom  370 type  2   force =    -0.00000004    0.00000029   -0.00000020
     atom  371 type  1   force =    -0.00000005    0.00000007   -0.00000009
     atom  372 type  1   force =     0.00000005    0.00000008    0.00000005
     atom  373 type  2   force =     0.00000015   -0.00000030    0.00000007
     atom  374 type  1   force =     0.00000005    0.00000001    0.00000004
     atom  375 type  1   force =     0.00000003   -0.00000007   -0.00000001
     atom  376 type  2   force =     0.00000005   -0.00000008   -0.00000024
     atom  377 type  1   force =     0.00000004    0.00000001   -0.00000008
     atom  378 type  1   force =    -0.00000003   -0.00000009   -0.00000002
     atom  379 type  2   force =     0.00000003   -0.00000007    0.00000004
     atom  380 type  1   force =     0.00000008   -0.00000008   -0.00000001
     atom  381 type  1   force =    -0.00000010   -0.00000003    0.00000003
     atom  382 type  2   force =     0.00000036    0.00000019   -0.00000017
     atom  383 type  1   force =     0.00000003    0.00000002   -0.00000001
     atom  384 type  1   force =     0.00000002    0.00000002   -0.00000000
     atom  385 type  2   force =    -0.00000010   -0.00000014    0.00000019
     atom  386 type  1   force =    -0.00000005   -0.00000003    0.00000002
     atom  387 type  1   force =     0.00000005   -0.00000001    0.00000006
     atom  388 type  2   force =     0.00000025    0.00000012   -0.00000034
     atom  389 type  1   force =     0.00000005   -0.00000002   -0.00000005
     atom  390 type  1   force =     0.00000001    0.00000005   -0.00000003
     atom  391 type  2   force =     0.00000032   -0.00000005    0.00000034
     atom  392 type  1   force =     0.00000011   -0.00000002   -0.00000005
     atom  393 type  1   force =     0.00000004    0.00000001    0.00000014
     atom  394 type  2   force =    -0.00000016   -0.00000014    0.00000013
     atom  395 type  1   force =    -0.00000008   -0.00000001   -0.00000002
     atom  396 type  1   force =     0.00000001   -0.00000001    0.00000006
     atom  397 type  2   force =     0.00000031    0.00000027   -0.00000016
     atom  398 type  1   force =     0.00000004    0.00000009   -0.00000003
     atom  399 type  1   force =     0.00000008   -0.00000006   -0.00000004
     atom  400 type  2   force =    -0.00000024   -0.00000005    0.00000027
     atom  401 type  1   force =    -0.00000004   -0.00000003    0.00000013
     atom  402 type  1   force =    -0.00000011    0.00000003   -0.00000007
     atom  403 type  2   force =     0.00000038    0.00000020    0.00000050
     atom  404 type  1   force =     0.00000004   -0.00000001    0.00000016
     atom  405 type  1   force =     0.00000010    0.00000008    0.00000003
     atom  406 type  2   force =    -0.00000032   -0.00000007    0.00000013
     atom  407 type  1   force =    -0.00000007   -0.00000006   -0.00000006
     atom  408 type  1   force =    -0.00000007    0.00000001    0.00000009
     atom  409 type  2   force =    -0.00000023   -0.00000041    0.00000035
     atom  410 type  1   force =    -0.00000005   -0.00000009   -0.00000005
     atom  411 type  1   force =    -0.00000005   -0.00000007    0.00000012
     atom  412 type  2   force =    -0.00000004    0.00000018   -0.00000020
     atom  413 type  1   force =     0.00000001    0.00000007   -0.00000010
     atom  414 type  1   force =    -0.00000008   -0.00000001   -0.00000000
     atom  415 type  2   force =     0.00000005   -0.00000018    0.00000036
     atom  416 type  1   force =     0.00000004   -0.00000001    0.00000011
     atom  417 type  1   force =    -0.00000004   -0.00000007    0.00000007

     Total force =     0.845221     Total SCF correction =     0.000005

     Writing output data file ./s10_9557545:4.save/
 
     init_run     :     20.98s CPU      7.59s WALL (       1 calls)
     electrons    :    768.16s CPU    204.31s WALL (       1 calls)
     forces       :     12.27s CPU      3.55s WALL (       1 calls)

     Called by init_run:
     wfcinit      :     13.48s CPU      3.65s WALL (       1 calls)
     wfcinit:atom :      0.19s CPU      0.05s WALL (       1 calls)
     wfcinit:wfcr :     12.57s CPU      3.30s WALL (       1 calls)
     potinit      :      1.72s CPU      0.49s WALL (       1 calls)
     hinit0       :      1.53s CPU      0.41s WALL (       1 calls)

     Called by electrons:
     c_bands      :    599.83s CPU    154.30s WALL (      21 calls)
     sum_band     :    108.57s CPU     31.08s WALL (      21 calls)
     v_of_rho     :     21.55s CPU      5.83s WALL (      22 calls)
     v_h          :      2.42s CPU      0.63s WALL (      22 calls)
     v_xc         :     19.96s CPU      5.43s WALL (      23 calls)
     newd         :     26.19s CPU      9.69s WALL (      22 calls)
     PAW_pot      :      4.22s CPU      1.09s WALL (      22 calls)
     mix_rho      :      5.62s CPU      1.49s WALL (      21 calls)

     Called by c_bands:
     init_us_2    :      4.08s CPU      1.08s WALL (      43 calls)
     regterg      :    591.88s CPU    152.28s WALL (      21 calls)

     Called by sum_band:
     sum_band:wei :      0.00s CPU      0.00s WALL (      21 calls)
     sum_band:loo :     85.58s CPU     22.02s WALL (      21 calls)
     sum_band:buf :      0.00s CPU      0.00s WALL (      21 calls)
     sum_band:ini :      1.99s CPU      0.51s WALL (      21 calls)
     sum_band:cal :     12.98s CPU      3.28s WALL (      21 calls)
     sum_band:bec :      0.25s CPU      0.06s WALL (      21 calls)
     addusdens    :     19.79s CPU      8.21s WALL (      21 calls)
     addusd:skk   :     11.27s CPU      5.45s WALL (      42 calls)
     addusd:dgemm :      5.78s CPU      1.93s WALL (      42 calls)
     addusd:qvan2 :      1.92s CPU      0.49s WALL (      42 calls)

     Called by *egterg:
     rdiaghg      :     42.05s CPU     10.68s WALL (      80 calls)
     regterg:over :     39.65s CPU     10.14s WALL (      59 calls)
     regterg:upda :     20.42s CPU      5.31s WALL (      59 calls)
     regterg:last :     58.83s CPU     14.94s WALL (      48 calls)
     rdiaghg:chol :      1.29s CPU      0.34s WALL (      80 calls)
     rdiaghg:inve :      1.84s CPU      0.47s WALL (      80 calls)
     rdiaghg:para :      2.20s CPU      0.58s WALL (     160 calls)
     h_psi        :    387.75s CPU     99.90s WALL (      81 calls)
     s_psi        :     35.58s CPU      9.07s WALL (      81 calls)
     g_psi        :      0.99s CPU      0.26s WALL (      59 calls)

     Called by h_psi:
     h_psi:calbec :     37.25s CPU      9.45s WALL (      81 calls)
     vloc_psi     :    313.04s CPU     80.99s WALL (      81 calls)
     vloc_psi:tg_ :      1.14s CPU      0.29s WALL (      81 calls)
     add_vuspsi   :     35.80s CPU      9.04s WALL (      81 calls)

     General routines
     calbec       :     52.59s CPU     13.33s WALL (     106 calls)
     fft          :     20.46s CPU      5.50s WALL (     249 calls)
     ffts         :      1.33s CPU      0.35s WALL (      43 calls)
     fftw         :    299.07s CPU     77.61s WALL (   19531 calls)
     interpolate  :      3.13s CPU      0.83s WALL (      22 calls)
 
     Parallel routines
     fft_scatt_xy :     45.30s CPU     11.57s WALL (   19823 calls)
     fft_scatt_yz :    129.53s CPU     33.75s WALL (   19823 calls)
     fft_scatt_tg :     26.02s CPU      7.64s WALL (   19531 calls)

     PAW routines
     PAW_pot      :      4.22s CPU      1.09s WALL (      22 calls)
 
     PWSCF        :  13m25.01s CPU   3m39.27s WALL

 
   This run was terminated on:  11:59:12  26Jun2021            

=------------------------------------------------------------------------------=
   JOB DONE.
=------------------------------------------------------------------------------=
