
     Program PWSCF v.6.6 starts on 26Jun2021 at  8:55:59 

     This program is part of the open-source Quantum ESPRESSO suite
     for quantum simulation of materials; please cite
         "P. Giannozzi et al., J. Phys.:Condens. Matter 21 395502 (2009);
         "P. Giannozzi et al., J. Phys.:Condens. Matter 29 465901 (2017);
          URL http://www.quantum-espresso.org", 
     in publications or presentations arising from this work. More details at
     http://www.quantum-espresso.org/quote

     Parallel version (MPI & OpenMP), running on      96 processor cores
     Number of MPI processes:                24
     Threads/MPI process:                     4

     MPI processes distributed on     2 nodes
     R & G space division:  proc/nbgrp/npool/nimage =      24
     wavefunctions fft division:  Y-proc x Z-proc =       4      6
     wavefunctions fft division:  task group distribution
                                  #TG    x Z-proc =       4      6
     Fft bands division:     nmany     =       1
     Reading input from _008.in

     Current dimensions of program PWSCF are:
     Max number of different atomic species (ntypx) = 10
     Max number of k-points (npk) =  40000
     Max angular momentum in pseudopotentials (lmaxx) =  3
     file O.pbe-n-kjpaw_psl.0.1.UPF: wavefunction(s)  2P renormalized

     gamma-point specific algorithms are used

     Subspace diagonalization in iterative solution of the eigenvalue problem:
     a serial algorithm will be used

 
     Parallelization info
     --------------------
     sticks:   dense  smooth     PW     G-vecs:    dense   smooth      PW
     Min        1826     913    226               288822   102054   12762
     Max        1836     920    232               288934   102206   12832
     Sum       43981   21985   5497              6933065  2451559  306907
 


     bravais-lattice index     =            1
     lattice parameter (alat)  =      33.9244  a.u.
     unit-cell volume          =   39042.2753 (a.u.)^3
     number of atoms/cell      =          228
     number of atomic types    =            2
     number of electrons       =       608.00
     number of Kohn-Sham states=          304
     kinetic-energy cutoff     =      60.0000  Ry
     charge density cutoff     =     480.0000  Ry
     convergence threshold     =      1.0E-10
     mixing beta               =       0.7000
     number of iterations used =            8  plain     mixing
     Exchange-correlation= SLA PW PBX PBC
                           (   1   4   3   4   0   0   0)

     celldm(1)=  33.924363  celldm(2)=   0.000000  celldm(3)=   0.000000
     celldm(4)=   0.000000  celldm(5)=   0.000000  celldm(6)=   0.000000

     crystal axes: (cart. coord. in units of alat)
               a(1) = (   1.000000   0.000000   0.000000 )  
               a(2) = (   0.000000   1.000000   0.000000 )  
               a(3) = (   0.000000   0.000000   1.000000 )  

     reciprocal axes: (cart. coord. in units 2 pi/alat)
               b(1) = (  1.000000  0.000000  0.000000 )  
               b(2) = (  0.000000  1.000000  0.000000 )  
               b(3) = (  0.000000  0.000000  1.000000 )  


     PseudoPot. # 1 for H  read from file:
     ./H.pbe-rrkjus_psl.1.0.0.UPF
     MD5 check sum: f52b6d4d1c606e5624b1dc7b2218f220
     Pseudo is Ultrasoft, Zval =  1.0
     Generated using "atomic" code by A. Dal Corso v.5.1
     Using radial grid of  929 points,  2 beta functions with: 
                l(1) =   0
                l(2) =   0
     Q(r) pseudized with 0 coefficients 


     PseudoPot. # 2 for O  read from file:
     ./O.pbe-n-kjpaw_psl.0.1.UPF
     MD5 check sum: 0234752ac141de4415c5fc33072bef88
     Pseudo is Projector augmented-wave + core cor, Zval =  6.0
     Generated using "atomic" code by A. Dal Corso v.5.0.99 svn rev. 10869
     Shape of augmentation charge: BESSEL
     Using radial grid of 1095 points,  4 beta functions with: 
                l(1) =   0
                l(2) =   0
                l(3) =   1
                l(4) =   1
     Q(r) pseudized with 0 coefficients 


     atomic species   valence    mass     pseudopotential
        H              1.00     1.00000     H ( 1.00)
        O              6.00    16.00000     O ( 1.00)

     No symmetry found


                                    s                        frac. trans.

      isym =  1     identity                                     

 cryst.   s( 1) = (     1          0          0      )
                  (     0          1          0      )
                  (     0          0          1      )

 cart.    s( 1) = (  1.0000000  0.0000000  0.0000000 )
                  (  0.0000000  1.0000000  0.0000000 )
                  (  0.0000000  0.0000000  1.0000000 )


     point group C_1 (1)    
     there are  1 classes
     the character table:

       E    
A      1.00

     the symmetry operations in each class and the name of the first element:

     E        1
          identity                                               

   Cartesian axes

     site n.     atom                  positions (alat units)
         1           O   tau(   1) = (  -0.2013436   0.3069207   0.2097939  )
         2           H   tau(   2) = (  -0.1738648   0.2623574   0.2288447  )
         3           H   tau(   3) = (  -0.1903197   0.3137723   0.1556495  )
         4           O   tau(   4) = (   0.0689494   0.1962923   0.3103398  )
         5           H   tau(   5) = (   0.1057141   0.2154545   0.3474944  )
         6           H   tau(   6) = (   0.0956317   0.1669920   0.2712355  )
         7           O   tau(   7) = (  -0.3814572   0.0804278   0.1704668  )
         8           H   tau(   8) = (  -0.3759314   0.1289461   0.1973162  )
         9           H   tau(   9) = (  -0.3687678   0.0874465   0.1166566  )
        10           O   tau(  10) = (   0.2094352   0.1811965  -0.2485116  )
        11           H   tau(  11) = (   0.2599588   0.1822549  -0.2249877  )
        12           H   tau(  12) = (   0.1791321   0.1404211  -0.2256228  )
        13           O   tau(  13) = (   0.0887244  -0.1510673  -0.3942112  )
        14           H   tau(  14) = (   0.0397605  -0.1392747  -0.3703754  )
        15           H   tau(  15) = (   0.0908411  -0.2053788  -0.4063993  )
        16           O   tau(  16) = (  -0.1129857   0.1842602   0.0383924  )
        17           H   tau(  17) = (  -0.0987979   0.1854300  -0.0154846  )
        18           H   tau(  18) = (  -0.1519842   0.1452674   0.0464138  )
        19           O   tau(  19) = (   0.1901615   0.0255593   0.3698318  )
        20           H   tau(  20) = (   0.1987957   0.0031829   0.3195867  )
        21           H   tau(  21) = (   0.1882676   0.0810406   0.3654311  )
        22           O   tau(  22) = (   0.0666656   0.2863659  -0.0610561  )
        23           H   tau(  23) = (   0.0880559   0.2535004  -0.0215174  )
        24           H   tau(  24) = (   0.1073295   0.3167803  -0.0839505  )
        25           O   tau(  25) = (   0.0413759   0.0256150  -0.2359225  )
        26           H   tau(  26) = (   0.0885016   0.0331907  -0.2072516  )
        27           H   tau(  27) = (  -0.0007531   0.0506261  -0.2093906  )
        28           O   tau(  28) = (  -0.0049142   0.0627139   0.0615653  )
        29           H   tau(  29) = (  -0.0319196   0.0149086   0.0521513  )
        30           H   tau(  30) = (  -0.0418126   0.1031551   0.0717034  )
        31           O   tau(  31) = (  -0.0611754  -0.0666756  -0.1319452  )
        32           H   tau(  32) = (  -0.0066912  -0.0591722  -0.1231105  )
        33           H   tau(  33) = (  -0.0824655  -0.0213157  -0.1562767  )
        34           O   tau(  34) = (   0.0470577   0.0253365   0.2010484  )
        35           H   tau(  35) = (   0.0421000   0.0511832   0.1519730  )
        36           H   tau(  36) = (   0.0112957  -0.0172995   0.2032765  )
        37           O   tau(  37) = (  -0.1020455  -0.0664138   0.0173362  )
        38           H   tau(  38) = (  -0.1520399  -0.0462656   0.0313737  )
        39           H   tau(  39) = (  -0.0951549  -0.0622193  -0.0378053  )
        40           O   tau(  40) = (  -0.0368048   0.4114773   0.1544240  )
        41           H   tau(  41) = (  -0.0205448   0.3955459   0.2052819  )
        42           H   tau(  42) = (  -0.0057888   0.4546480   0.1377128  )
        43           O   tau(  43) = (  -0.1965642  -0.0301393   0.1969820  )
        44           H   tau(  44) = (  -0.2155537  -0.0180459   0.2479512  )
        45           H   tau(  45) = (  -0.1428431  -0.0445276   0.2001571  )
        46           O   tau(  46) = (  -0.4270065  -0.0411965  -0.0165207  )
        47           H   tau(  47) = (  -0.4258590  -0.0677841   0.0324320  )
        48           H   tau(  48) = (  -0.4332008  -0.0782565  -0.0576471  )
        49           O   tau(  49) = (  -0.1761096   0.1076114  -0.2718460  )
        50           H   tau(  50) = (  -0.2304490   0.1067201  -0.2840452  )
        51           H   tau(  51) = (  -0.1473997   0.1252139  -0.3162032  )
        52           O   tau(  52) = (  -0.1697037  -0.2267190   0.1466254  )
        53           H   tau(  53) = (  -0.2086074  -0.1926783   0.1258478  )
        54           H   tau(  54) = (  -0.1203498  -0.2145978   0.1237868  )
        55           O   tau(  55) = (  -0.1500234  -0.2118070  -0.3257509  )
        56           H   tau(  56) = (  -0.1567970  -0.2170265  -0.3807921  )
        57           H   tau(  57) = (  -0.1051092  -0.1805013  -0.3154568  )
        58           O   tau(  58) = (   0.2265363  -0.2172048   0.0269730  )
        59           H   tau(  59) = (   0.2648050  -0.2193438   0.0673585  )
        60           H   tau(  60) = (   0.1810261  -0.1912244   0.0458567  )
        61           O   tau(  61) = (   0.3723697   0.0180949   0.2074543  )
        62           H   tau(  62) = (   0.3301459   0.0219942   0.1713581  )
        63           H   tau(  63) = (   0.4173229   0.0433289   0.1862311  )
        64           O   tau(  64) = (  -0.0801593   0.2191867   0.2633812  )
        65           H   tau(  65) = (  -0.0252518   0.2228632   0.2719597  )
        66           H   tau(  66) = (  -0.1046803   0.1980749   0.3087244  )
        67           O   tau(  67) = (   0.1164650   0.2397972  -0.3413703  )
        68           H   tau(  68) = (   0.1491633   0.2321658  -0.2969017  )
        69           H   tau(  69) = (   0.1205314   0.1956796  -0.3751716  )
        70           O   tau(  70) = (  -0.0754356   0.0866667  -0.1603264  )
        71           H   tau(  71) = (  -0.0675869   0.1354078  -0.1345689  )
        72           H   tau(  72) = (  -0.1104234   0.0936854  -0.2030960  )
        73           O   tau(  73) = (  -0.0109247  -0.3019864   0.3012043  )
        74           H   tau(  74) = (  -0.0664617  -0.3060807   0.2999231  )
        75           H   tau(  75) = (   0.0077863  -0.3186809   0.3509481  )
        76           O   tau(  76) = (   0.2708211   0.1781328   0.1003910  )
        77           H   tau(  77) = (   0.2370087   0.2195209   0.0847382  )
        78           H   tau(  78) = (   0.3172226   0.1994118   0.1226170  )
        79           O   tau(  79) = (   0.2687600  -0.2380492  -0.1163146  )
        80           H   tau(  80) = (   0.2253108  -0.2586542  -0.1443672  )
        81           H   tau(  81) = (   0.2558924  -0.2342001  -0.0622649  )
        82           O   tau(  82) = (   0.2225813  -0.0713714  -0.0079256  )
        83           H   tau(  83) = (   0.1733946  -0.0587266  -0.0308088  )
        84           H   tau(  84) = (   0.2353933  -0.1243238  -0.0195343  )
        85           O   tau(  85) = (  -0.0409770  -0.1819886   0.0889160  )
        86           H   tau(  86) = (  -0.0589918  -0.1394029   0.0578888  )
        87           H   tau(  87) = (  -0.0143895  -0.2186642   0.0564962  )
        88           O   tau(  88) = (  -0.3136096   0.2869786  -0.1169552  )
        89           H   tau(  89) = (  -0.3691967   0.2839149  -0.1188770  )
        90           H   tau(  90) = (  -0.2924421   0.2712701  -0.1660361  )
        91           O   tau(  91) = (  -0.3060339   0.3122126   0.0319864  )
        92           H   tau(  92) = (  -0.3066745   0.2958913  -0.0212890  )
        93           H   tau(  93) = (  -0.2533824   0.3201225   0.0483634  )
        94           O   tau(  94) = (   0.3418995  -0.2292480   0.1309726  )
        95           H   tau(  95) = (   0.3264138  -0.1964661   0.1732520  )
        96           H   tau(  96) = (   0.3879668  -0.2572393   0.1451214  )
        97           O   tau(  97) = (   0.1664873   0.0631038  -0.1475702  )
        98           H   tau(  98) = (   0.2191834   0.0530771  -0.1624933  )
        99           H   tau(  99) = (   0.1652061   0.0811520  -0.0948852  )
       100           O   tau( 100) = (  -0.2047137   0.0713480   0.0875234  )
       101           H   tau( 101) = (  -0.2090809   0.0397081   0.1331451  )
       102           H   tau( 102) = (  -0.2556049   0.0851070   0.0695310  )
       103           O   tau( 103) = (  -0.2575824  -0.1414973  -0.0646713  )
       104           H   tau( 104) = (  -0.2650078  -0.1299109  -0.0106941  )
       105           H   tau( 105) = (  -0.2403253  -0.0957030  -0.0912812  )
       106           O   tau( 106) = (  -0.0577885  -0.0828131   0.2111308  )
       107           H   tau( 107) = (  -0.0530537  -0.1251203   0.1752016  )
       108           H   tau( 108) = (  -0.0472048  -0.1009782   0.2627128  )
       109           O   tau( 109) = (   0.2604601   0.0181506   0.1016722  )
       110           H   tau( 110) = (   0.2516032   0.0725178   0.0933166  )
       111           H   tau( 111) = (   0.2397382  -0.0108211   0.0588915  )
       112           O   tau( 112) = (   0.1183590   0.3992224   0.0563291  )
       113           H   tau( 113) = (   0.1279958   0.3891399   0.0024075  )
       114           H   tau( 114) = (   0.0898385   0.4467380   0.0615653  )
       115           O   tau( 115) = (   0.1407520   0.2423596   0.0680270  )
       116           H   tau( 116) = (   0.1033189   0.2203565   0.1028977  )
       117           H   tau( 117) = (   0.1284971   0.2958913   0.0589472  )
       118           O   tau( 118) = (  -0.1729178  -0.3211319   0.0245778  )
       119           H   tau( 119) = (  -0.1333567  -0.2909124  -0.0004334  )
       120           H   tau( 120) = (  -0.1626459  -0.3235717   0.0792792  )
       121           O   tau( 121) = (  -0.2664617  -0.1118850   0.0930381  )
       122           H   tau( 122) = (  -0.3192357  -0.1273151   0.1019508  )
       123           H   tau( 123) = (  -0.2520566  -0.0727473   0.1299699  )
       124           O   tau( 124) = (  -0.0373841  -0.3651381   0.1500791  )
       125           H   tau( 125) = (  -0.0318026  -0.3282175   0.1914115  )
       126           H   tau( 126) = (   0.0112400  -0.3707531   0.1235082  )
       127           O   tau( 127) = (   0.2208545  -0.0824621  -0.3695733  )
       128           H   tau( 128) = (   0.1729490  -0.1100969  -0.3762857  )
       129           H   tau( 129) = (   0.2266477  -0.0451515  -0.4105270  )
       130           O   tau( 130) = (   0.3203977   0.0499577  -0.1713391  )
       131           H   tau( 131) = (   0.3294775   0.0115831  -0.2106829  )
       132           H   tau( 132) = (   0.3173340   0.0251136  -0.1215619  )
       133           O   tau( 133) = (  -0.0665118   0.2252028  -0.1048619  )
       134           H   tau( 134) = (  -0.0838414   0.2520521  -0.1504779  )
       135           H   tau( 135) = (  -0.0169184   0.2452005  -0.0892591  )
       136           O   tau( 136) = (  -0.2210851   0.0200446   0.3542346  )
       137           H   tau( 137) = (  -0.2231183   0.0005871   0.4063737  )
       138           H   tau( 138) = (  -0.1679378   0.0268962   0.3390274  )
       139           O   tau( 139) = (  -0.1524911  -0.2665363   0.2946312  )
       140           H   tau( 140) = (  -0.1639717  -0.2538414   0.2416009  )
       141           H   tau( 141) = (  -0.1999621  -0.2702016   0.3235417  )
       142           O   tau( 142) = (  -0.1081729   0.0016288  -0.4346914  )
       143           H   tau( 143) = (  -0.1045633  -0.0281896  -0.4816054  )
       144           H   tau( 144) = (  -0.1375958   0.0479523  -0.4443449  )
       145           O   tau( 145) = (   0.3425680  -0.0587879  -0.2724365  )
       146           H   tau( 146) = (   0.3690831  -0.1075290  -0.2773162  )
       147           H   tau( 147) = (   0.3255782  -0.0417926  -0.3226872  )
       148           O   tau( 148) = (  -0.0241878   0.3104857  -0.2471190  )
       149           H   tau( 149) = (   0.0274499   0.2897638  -0.2492859  )
       150           H   tau( 150) = (  -0.0217424   0.3659670  -0.2425624  )
       151           O   tau( 151) = (   0.1761798   0.3737099  -0.0959603  )
       152           H   tau( 152) = (   0.1694953   0.4109759  -0.1368360  )
       153           H   tau( 153) = (   0.2237511   0.3841266  -0.0689550  )
       154           O   tau( 154) = (   0.0124098   0.1203676  -0.4028788  )
       155           H   tau( 155) = (  -0.0263826   0.0885049  -0.4270878  )
       156           H   tau( 156) = (  -0.0003131   0.1273864  -0.3491020  )
       157           O   tau( 157) = (   0.1257676  -0.2985550  -0.0768483  )
       158           H   tau( 158) = (   0.1462110  -0.3439650  -0.1017981  )
       159           H   tau( 159) = (   0.1411419  -0.2982709  -0.0233111  )
       160           O   tau( 160) = (   0.1117859  -0.3894920   0.0854623  )
       161           H   tau( 161) = (   0.1523942  -0.3638291   0.1137043  )
       162           H   tau( 162) = (   0.1326749  -0.4339661   0.0592257  )
       163           O   tau( 163) = (  -0.1118494  -0.3382721  -0.1349254  )
       164           H   tau( 164) = (  -0.1660216  -0.3479757  -0.1435651  )
       165           H   tau( 165) = (  -0.0930604  -0.3024822  -0.1732498  )
       166           O   tau( 166) = (  -0.0629802   0.0573663   0.3381361  )
       167           H   tau( 167) = (  -0.0280816   0.0818204   0.3739539  )
       168           H   tau( 168) = (  -0.0337021   0.0290686   0.3000902  )
       169           O   tau( 169) = (  -0.3040564  -0.2817602  -0.0419608  )
       170           H   tau( 170) = (  -0.2567023  -0.3012066  -0.0200022  )
       171           H   tau( 171) = (  -0.3029534  -0.2260673  -0.0421223  )
       172           O   tau( 172) = (   0.1978487  -0.1180515  -0.2063826  )
       173           H   tau( 173) = (   0.2218572  -0.0876816  -0.2464505  )
       174           H   tau( 174) = (   0.2361731  -0.1503654  -0.1821123  )
       175           O   tau( 175) = (  -0.1247337   0.2253699  -0.3570733  )
       176           H   tau( 176) = (  -0.1127462   0.2767848  -0.3392870  )
       177           H   tau( 177) = (  -0.0990541   0.2160116  -0.4056139  )
       178           O   tau( 178) = (  -0.2379635   0.0160116  -0.1048006  )
       179           H   tau( 179) = (  -0.1872672   0.0390397  -0.1034915  )
       180           H   tau( 180) = (  -0.2740263   0.0517402  -0.1276894  )
       181           O   tau( 181) = (  -0.0220878  -0.2846012  -0.0203197  )
       182           H   tau( 182) = (  -0.0549922  -0.3051894  -0.0602707  )
       183           H   tau( 183) = (   0.0307921  -0.2847850  -0.0378832  )
       184           O   tau( 184) = (  -0.3441578   0.0987545   0.0259147  )
       185           H   tau( 185) = (  -0.3685896   0.1373017  -0.0060038  )
       186           H   tau( 186) = (  -0.3636096   0.0483422   0.0122672  )
       187           O   tau( 187) = (   0.1369084   0.1025980  -0.0090397  )
       188           H   tau( 188) = (   0.1544552   0.1482197   0.0176705  )
       189           H   tau( 189) = (   0.0921223   0.0819318   0.0168906  )
       190           O   tau( 190) = (  -0.0430827  -0.2077239  -0.1963391  )
       191           H   tau( 191) = (  -0.0481796  -0.1541644  -0.1819062  )
       192           H   tau( 192) = (   0.0108500  -0.2217001  -0.1971190  )
       193           O   tau( 193) = (   0.2028621  -0.0373585   0.2387043  )
       194           H   tau( 194) = (   0.2384013  -0.0292424   0.1965363  )
       195           H   tau( 195) = (   0.1505559  -0.0337934   0.2198206  )
       196           O   tau( 196) = (  -0.0233746  -0.0819998  -0.3269931  )
       197           H   tau( 197) = (  -0.0520232  -0.0526214  -0.3646602  )
       198           H   tau( 198) = (   0.0064494  -0.0473407  -0.2952028  )
       199           O   tau( 199) = (  -0.1554434   0.3442424   0.0644619  )
       200           H   tau( 200) = (  -0.1169630   0.3728743   0.0927596  )
       201           H   tau( 201) = (  -0.1345042   0.2948329   0.0494218  )
       202           O   tau( 202) = (   0.1799677   0.1265508   0.2455559  )
       203           H   tau( 203) = (   0.2049231   0.1396413   0.1975390  )
       204           H   tau( 204) = (   0.1546223   0.0771970   0.2404869  )
       205           O   tau( 205) = (   0.1089450  -0.2088547   0.2472270  )
       206           H   tau( 206) = (   0.1439828  -0.2518917   0.2423808  )
       207           H   tau( 207) = (   0.0584213  -0.2275490   0.2613202  )
       208           O   tau( 208) = (   0.3586664  -0.0204579  -0.0407353  )
       209           H   tau( 209) = (   0.3102039  -0.0433746  -0.0256451  )
       210           H   tau( 210) = (   0.3976036  -0.0328186  -0.0028844  )
       211           O   tau( 211) = (   0.1025947  -0.1104701   0.3765163  )
       212           H   tau( 212) = (   0.1211442  -0.1416533   0.3342926  )
       213           H   tau( 213) = (   0.1246535  -0.0594452   0.3730626  )
       214           O   tau( 214) = (  -0.2644842  -0.2155281  -0.2203142  )
       215           H   tau( 215) = (  -0.2188291  -0.2165865  -0.2522103  )
       216           H   tau( 216) = (  -0.2500234  -0.2051281  -0.1675345  )
       217           O   tau( 217) = (   0.1077195  -0.1260283   0.1104735  )
       218           H   tau( 218) = (   0.0533523  -0.1287745   0.0986642  )
       219           H   tau( 219) = (   0.1163536  -0.1434804   0.1626682  )
       220           O   tau( 220) = (   0.0981941  -0.0775992  -0.1006785  )
       221           H   tau( 221) = (   0.1115074  -0.0264795  -0.1183590  )
       222           H   tau( 222) = (   0.1293327  -0.1152106  -0.1275111  )
       223           O   tau( 223) = (   0.0045945   0.1984648   0.1214472  )
       224           H   tau( 224) = (  -0.0145677   0.1891065   0.1729178  )
       225           H   tau( 225) = (  -0.0381974   0.2085472   0.0872449  )
       226           O   tau( 226) = (  -0.0663837  -0.1361330   0.3574655  )
       227           H   tau( 227) = (  -0.0329779  -0.1273429   0.4011932  )
       228           H   tau( 228) = (  -0.0970544  -0.1817658   0.3664338  )

   Crystallographic axes

     site n.     atom                  positions (cryst. coord.)
         1           O   tau(   1) = ( -0.2013436  0.3069207  0.2097939  )
         2           H   tau(   2) = ( -0.1738648  0.2623574  0.2288447  )
         3           H   tau(   3) = ( -0.1903197  0.3137723  0.1556495  )
         4           O   tau(   4) = (  0.0689494  0.1962923  0.3103398  )
         5           H   tau(   5) = (  0.1057141  0.2154545  0.3474944  )
         6           H   tau(   6) = (  0.0956317  0.1669920  0.2712355  )
         7           O   tau(   7) = ( -0.3814572  0.0804278  0.1704668  )
         8           H   tau(   8) = ( -0.3759314  0.1289461  0.1973162  )
         9           H   tau(   9) = ( -0.3687678  0.0874465  0.1166566  )
        10           O   tau(  10) = (  0.2094352  0.1811965 -0.2485116  )
        11           H   tau(  11) = (  0.2599588  0.1822549 -0.2249877  )
        12           H   tau(  12) = (  0.1791321  0.1404211 -0.2256228  )
        13           O   tau(  13) = (  0.0887244 -0.1510673 -0.3942112  )
        14           H   tau(  14) = (  0.0397605 -0.1392747 -0.3703754  )
        15           H   tau(  15) = (  0.0908411 -0.2053788 -0.4063993  )
        16           O   tau(  16) = ( -0.1129857  0.1842602  0.0383924  )
        17           H   tau(  17) = ( -0.0987979  0.1854300 -0.0154846  )
        18           H   tau(  18) = ( -0.1519842  0.1452674  0.0464138  )
        19           O   tau(  19) = (  0.1901615  0.0255593  0.3698318  )
        20           H   tau(  20) = (  0.1987957  0.0031829  0.3195867  )
        21           H   tau(  21) = (  0.1882676  0.0810406  0.3654311  )
        22           O   tau(  22) = (  0.0666656  0.2863659 -0.0610561  )
        23           H   tau(  23) = (  0.0880559  0.2535004 -0.0215174  )
        24           H   tau(  24) = (  0.1073295  0.3167803 -0.0839505  )
        25           O   tau(  25) = (  0.0413759  0.0256150 -0.2359225  )
        26           H   tau(  26) = (  0.0885016  0.0331907 -0.2072516  )
        27           H   tau(  27) = ( -0.0007531  0.0506261 -0.2093906  )
        28           O   tau(  28) = ( -0.0049142  0.0627139  0.0615653  )
        29           H   tau(  29) = ( -0.0319196  0.0149086  0.0521513  )
        30           H   tau(  30) = ( -0.0418126  0.1031551  0.0717034  )
        31           O   tau(  31) = ( -0.0611754 -0.0666756 -0.1319452  )
        32           H   tau(  32) = ( -0.0066912 -0.0591722 -0.1231105  )
        33           H   tau(  33) = ( -0.0824655 -0.0213157 -0.1562767  )
        34           O   tau(  34) = (  0.0470577  0.0253365  0.2010484  )
        35           H   tau(  35) = (  0.0421000  0.0511832  0.1519730  )
        36           H   tau(  36) = (  0.0112957 -0.0172995  0.2032765  )
        37           O   tau(  37) = ( -0.1020455 -0.0664138  0.0173362  )
        38           H   tau(  38) = ( -0.1520399 -0.0462656  0.0313737  )
        39           H   tau(  39) = ( -0.0951549 -0.0622193 -0.0378053  )
        40           O   tau(  40) = ( -0.0368048  0.4114773  0.1544240  )
        41           H   tau(  41) = ( -0.0205448  0.3955459  0.2052819  )
        42           H   tau(  42) = ( -0.0057888  0.4546480  0.1377128  )
        43           O   tau(  43) = ( -0.1965642 -0.0301393  0.1969820  )
        44           H   tau(  44) = ( -0.2155537 -0.0180459  0.2479512  )
        45           H   tau(  45) = ( -0.1428431 -0.0445276  0.2001571  )
        46           O   tau(  46) = ( -0.4270065 -0.0411965 -0.0165207  )
        47           H   tau(  47) = ( -0.4258590 -0.0677841  0.0324320  )
        48           H   tau(  48) = ( -0.4332008 -0.0782565 -0.0576471  )
        49           O   tau(  49) = ( -0.1761096  0.1076114 -0.2718460  )
        50           H   tau(  50) = ( -0.2304490  0.1067201 -0.2840452  )
        51           H   tau(  51) = ( -0.1473997  0.1252139 -0.3162032  )
        52           O   tau(  52) = ( -0.1697037 -0.2267190  0.1466254  )
        53           H   tau(  53) = ( -0.2086074 -0.1926783  0.1258478  )
        54           H   tau(  54) = ( -0.1203498 -0.2145978  0.1237868  )
        55           O   tau(  55) = ( -0.1500234 -0.2118070 -0.3257509  )
        56           H   tau(  56) = ( -0.1567970 -0.2170265 -0.3807921  )
        57           H   tau(  57) = ( -0.1051092 -0.1805013 -0.3154568  )
        58           O   tau(  58) = (  0.2265363 -0.2172048  0.0269730  )
        59           H   tau(  59) = (  0.2648050 -0.2193438  0.0673585  )
        60           H   tau(  60) = (  0.1810261 -0.1912244  0.0458567  )
        61           O   tau(  61) = (  0.3723697  0.0180949  0.2074543  )
        62           H   tau(  62) = (  0.3301459  0.0219942  0.1713581  )
        63           H   tau(  63) = (  0.4173229  0.0433289  0.1862311  )
        64           O   tau(  64) = ( -0.0801593  0.2191867  0.2633812  )
        65           H   tau(  65) = ( -0.0252518  0.2228632  0.2719597  )
        66           H   tau(  66) = ( -0.1046803  0.1980749  0.3087244  )
        67           O   tau(  67) = (  0.1164650  0.2397972 -0.3413703  )
        68           H   tau(  68) = (  0.1491633  0.2321658 -0.2969017  )
        69           H   tau(  69) = (  0.1205314  0.1956796 -0.3751716  )
        70           O   tau(  70) = ( -0.0754356  0.0866667 -0.1603264  )
        71           H   tau(  71) = ( -0.0675869  0.1354078 -0.1345689  )
        72           H   tau(  72) = ( -0.1104234  0.0936854 -0.2030960  )
        73           O   tau(  73) = ( -0.0109247 -0.3019864  0.3012043  )
        74           H   tau(  74) = ( -0.0664617 -0.3060807  0.2999231  )
        75           H   tau(  75) = (  0.0077863 -0.3186809  0.3509481  )
        76           O   tau(  76) = (  0.2708211  0.1781328  0.1003910  )
        77           H   tau(  77) = (  0.2370087  0.2195209  0.0847382  )
        78           H   tau(  78) = (  0.3172226  0.1994118  0.1226170  )
        79           O   tau(  79) = (  0.2687600 -0.2380492 -0.1163146  )
        80           H   tau(  80) = (  0.2253108 -0.2586542 -0.1443672  )
        81           H   tau(  81) = (  0.2558924 -0.2342001 -0.0622649  )
        82           O   tau(  82) = (  0.2225813 -0.0713714 -0.0079256  )
        83           H   tau(  83) = (  0.1733946 -0.0587266 -0.0308088  )
        84           H   tau(  84) = (  0.2353933 -0.1243238 -0.0195343  )
        85           O   tau(  85) = ( -0.0409770 -0.1819886  0.0889160  )
        86           H   tau(  86) = ( -0.0589918 -0.1394029  0.0578888  )
        87           H   tau(  87) = ( -0.0143895 -0.2186642  0.0564962  )
        88           O   tau(  88) = ( -0.3136096  0.2869786 -0.1169552  )
        89           H   tau(  89) = ( -0.3691967  0.2839149 -0.1188770  )
        90           H   tau(  90) = ( -0.2924421  0.2712701 -0.1660361  )
        91           O   tau(  91) = ( -0.3060339  0.3122126  0.0319864  )
        92           H   tau(  92) = ( -0.3066745  0.2958913 -0.0212890  )
        93           H   tau(  93) = ( -0.2533824  0.3201225  0.0483634  )
        94           O   tau(  94) = (  0.3418995 -0.2292480  0.1309726  )
        95           H   tau(  95) = (  0.3264138 -0.1964661  0.1732520  )
        96           H   tau(  96) = (  0.3879668 -0.2572393  0.1451214  )
        97           O   tau(  97) = (  0.1664873  0.0631038 -0.1475702  )
        98           H   tau(  98) = (  0.2191834  0.0530771 -0.1624933  )
        99           H   tau(  99) = (  0.1652061  0.0811520 -0.0948852  )
       100           O   tau( 100) = ( -0.2047137  0.0713480  0.0875234  )
       101           H   tau( 101) = ( -0.2090809  0.0397081  0.1331451  )
       102           H   tau( 102) = ( -0.2556049  0.0851070  0.0695310  )
       103           O   tau( 103) = ( -0.2575824 -0.1414973 -0.0646713  )
       104           H   tau( 104) = ( -0.2650078 -0.1299109 -0.0106941  )
       105           H   tau( 105) = ( -0.2403253 -0.0957030 -0.0912812  )
       106           O   tau( 106) = ( -0.0577885 -0.0828131  0.2111308  )
       107           H   tau( 107) = ( -0.0530537 -0.1251203  0.1752016  )
       108           H   tau( 108) = ( -0.0472048 -0.1009782  0.2627128  )
       109           O   tau( 109) = (  0.2604601  0.0181506  0.1016722  )
       110           H   tau( 110) = (  0.2516032  0.0725178  0.0933166  )
       111           H   tau( 111) = (  0.2397382 -0.0108211  0.0588915  )
       112           O   tau( 112) = (  0.1183590  0.3992224  0.0563291  )
       113           H   tau( 113) = (  0.1279958  0.3891399  0.0024075  )
       114           H   tau( 114) = (  0.0898385  0.4467380  0.0615653  )
       115           O   tau( 115) = (  0.1407520  0.2423596  0.0680270  )
       116           H   tau( 116) = (  0.1033189  0.2203565  0.1028977  )
       117           H   tau( 117) = (  0.1284971  0.2958913  0.0589472  )
       118           O   tau( 118) = ( -0.1729178 -0.3211319  0.0245778  )
       119           H   tau( 119) = ( -0.1333567 -0.2909124 -0.0004334  )
       120           H   tau( 120) = ( -0.1626459 -0.3235717  0.0792792  )
       121           O   tau( 121) = ( -0.2664617 -0.1118850  0.0930381  )
       122           H   tau( 122) = ( -0.3192357 -0.1273151  0.1019508  )
       123           H   tau( 123) = ( -0.2520566 -0.0727473  0.1299699  )
       124           O   tau( 124) = ( -0.0373841 -0.3651381  0.1500791  )
       125           H   tau( 125) = ( -0.0318026 -0.3282175  0.1914115  )
       126           H   tau( 126) = (  0.0112400 -0.3707531  0.1235082  )
       127           O   tau( 127) = (  0.2208545 -0.0824621 -0.3695733  )
       128           H   tau( 128) = (  0.1729490 -0.1100969 -0.3762857  )
       129           H   tau( 129) = (  0.2266477 -0.0451515 -0.4105270  )
       130           O   tau( 130) = (  0.3203977  0.0499577 -0.1713391  )
       131           H   tau( 131) = (  0.3294775  0.0115831 -0.2106829  )
       132           H   tau( 132) = (  0.3173340  0.0251136 -0.1215619  )
       133           O   tau( 133) = ( -0.0665118  0.2252028 -0.1048619  )
       134           H   tau( 134) = ( -0.0838414  0.2520521 -0.1504779  )
       135           H   tau( 135) = ( -0.0169184  0.2452005 -0.0892591  )
       136           O   tau( 136) = ( -0.2210851  0.0200446  0.3542346  )
       137           H   tau( 137) = ( -0.2231183  0.0005871  0.4063737  )
       138           H   tau( 138) = ( -0.1679378  0.0268962  0.3390274  )
       139           O   tau( 139) = ( -0.1524911 -0.2665363  0.2946312  )
       140           H   tau( 140) = ( -0.1639717 -0.2538414  0.2416009  )
       141           H   tau( 141) = ( -0.1999621 -0.2702016  0.3235417  )
       142           O   tau( 142) = ( -0.1081729  0.0016288 -0.4346914  )
       143           H   tau( 143) = ( -0.1045633 -0.0281896 -0.4816054  )
       144           H   tau( 144) = ( -0.1375958  0.0479523 -0.4443449  )
       145           O   tau( 145) = (  0.3425680 -0.0587879 -0.2724365  )
       146           H   tau( 146) = (  0.3690831 -0.1075290 -0.2773162  )
       147           H   tau( 147) = (  0.3255782 -0.0417926 -0.3226872  )
       148           O   tau( 148) = ( -0.0241878  0.3104857 -0.2471190  )
       149           H   tau( 149) = (  0.0274499  0.2897638 -0.2492859  )
       150           H   tau( 150) = ( -0.0217424  0.3659670 -0.2425624  )
       151           O   tau( 151) = (  0.1761798  0.3737099 -0.0959603  )
       152           H   tau( 152) = (  0.1694953  0.4109759 -0.1368360  )
       153           H   tau( 153) = (  0.2237511  0.3841266 -0.0689550  )
       154           O   tau( 154) = (  0.0124098  0.1203676 -0.4028788  )
       155           H   tau( 155) = ( -0.0263826  0.0885049 -0.4270878  )
       156           H   tau( 156) = ( -0.0003131  0.1273864 -0.3491020  )
       157           O   tau( 157) = (  0.1257676 -0.2985550 -0.0768483  )
       158           H   tau( 158) = (  0.1462110 -0.3439650 -0.1017981  )
       159           H   tau( 159) = (  0.1411419 -0.2982709 -0.0233111  )
       160           O   tau( 160) = (  0.1117859 -0.3894920  0.0854623  )
       161           H   tau( 161) = (  0.1523942 -0.3638291  0.1137043  )
       162           H   tau( 162) = (  0.1326749 -0.4339661  0.0592257  )
       163           O   tau( 163) = ( -0.1118494 -0.3382721 -0.1349254  )
       164           H   tau( 164) = ( -0.1660216 -0.3479757 -0.1435651  )
       165           H   tau( 165) = ( -0.0930604 -0.3024822 -0.1732498  )
       166           O   tau( 166) = ( -0.0629802  0.0573663  0.3381361  )
       167           H   tau( 167) = ( -0.0280816  0.0818204  0.3739539  )
       168           H   tau( 168) = ( -0.0337021  0.0290686  0.3000902  )
       169           O   tau( 169) = ( -0.3040564 -0.2817602 -0.0419608  )
       170           H   tau( 170) = ( -0.2567023 -0.3012066 -0.0200022  )
       171           H   tau( 171) = ( -0.3029534 -0.2260673 -0.0421223  )
       172           O   tau( 172) = (  0.1978487 -0.1180515 -0.2063826  )
       173           H   tau( 173) = (  0.2218572 -0.0876816 -0.2464505  )
       174           H   tau( 174) = (  0.2361731 -0.1503654 -0.1821123  )
       175           O   tau( 175) = ( -0.1247337  0.2253699 -0.3570733  )
       176           H   tau( 176) = ( -0.1127462  0.2767848 -0.3392870  )
       177           H   tau( 177) = ( -0.0990541  0.2160116 -0.4056139  )
       178           O   tau( 178) = ( -0.2379635  0.0160116 -0.1048006  )
       179           H   tau( 179) = ( -0.1872672  0.0390397 -0.1034915  )
       180           H   tau( 180) = ( -0.2740263  0.0517402 -0.1276894  )
       181           O   tau( 181) = ( -0.0220878 -0.2846012 -0.0203197  )
       182           H   tau( 182) = ( -0.0549922 -0.3051894 -0.0602707  )
       183           H   tau( 183) = (  0.0307921 -0.2847850 -0.0378832  )
       184           O   tau( 184) = ( -0.3441578  0.0987545  0.0259147  )
       185           H   tau( 185) = ( -0.3685896  0.1373017 -0.0060038  )
       186           H   tau( 186) = ( -0.3636096  0.0483422  0.0122672  )
       187           O   tau( 187) = (  0.1369084  0.1025980 -0.0090397  )
       188           H   tau( 188) = (  0.1544552  0.1482197  0.0176705  )
       189           H   tau( 189) = (  0.0921223  0.0819318  0.0168906  )
       190           O   tau( 190) = ( -0.0430827 -0.2077239 -0.1963391  )
       191           H   tau( 191) = ( -0.0481796 -0.1541644 -0.1819062  )
       192           H   tau( 192) = (  0.0108500 -0.2217001 -0.1971190  )
       193           O   tau( 193) = (  0.2028621 -0.0373585  0.2387043  )
       194           H   tau( 194) = (  0.2384013 -0.0292424  0.1965363  )
       195           H   tau( 195) = (  0.1505559 -0.0337934  0.2198206  )
       196           O   tau( 196) = ( -0.0233746 -0.0819998 -0.3269931  )
       197           H   tau( 197) = ( -0.0520232 -0.0526214 -0.3646602  )
       198           H   tau( 198) = (  0.0064494 -0.0473407 -0.2952028  )
       199           O   tau( 199) = ( -0.1554434  0.3442424  0.0644619  )
       200           H   tau( 200) = ( -0.1169630  0.3728743  0.0927596  )
       201           H   tau( 201) = ( -0.1345042  0.2948329  0.0494218  )
       202           O   tau( 202) = (  0.1799677  0.1265508  0.2455559  )
       203           H   tau( 203) = (  0.2049231  0.1396413  0.1975390  )
       204           H   tau( 204) = (  0.1546223  0.0771970  0.2404869  )
       205           O   tau( 205) = (  0.1089450 -0.2088547  0.2472270  )
       206           H   tau( 206) = (  0.1439828 -0.2518917  0.2423808  )
       207           H   tau( 207) = (  0.0584213 -0.2275490  0.2613202  )
       208           O   tau( 208) = (  0.3586664 -0.0204579 -0.0407353  )
       209           H   tau( 209) = (  0.3102039 -0.0433746 -0.0256451  )
       210           H   tau( 210) = (  0.3976036 -0.0328186 -0.0028844  )
       211           O   tau( 211) = (  0.1025947 -0.1104701  0.3765163  )
       212           H   tau( 212) = (  0.1211442 -0.1416533  0.3342926  )
       213           H   tau( 213) = (  0.1246535 -0.0594452  0.3730626  )
       214           O   tau( 214) = ( -0.2644842 -0.2155281 -0.2203142  )
       215           H   tau( 215) = ( -0.2188291 -0.2165865 -0.2522103  )
       216           H   tau( 216) = ( -0.2500234 -0.2051281 -0.1675345  )
       217           O   tau( 217) = (  0.1077195 -0.1260283  0.1104735  )
       218           H   tau( 218) = (  0.0533523 -0.1287745  0.0986642  )
       219           H   tau( 219) = (  0.1163536 -0.1434804  0.1626682  )
       220           O   tau( 220) = (  0.0981941 -0.0775992 -0.1006785  )
       221           H   tau( 221) = (  0.1115074 -0.0264795 -0.1183590  )
       222           H   tau( 222) = (  0.1293327 -0.1152106 -0.1275111  )
       223           O   tau( 223) = (  0.0045945  0.1984648  0.1214472  )
       224           H   tau( 224) = ( -0.0145677  0.1891065  0.1729178  )
       225           H   tau( 225) = ( -0.0381974  0.2085472  0.0872449  )
       226           O   tau( 226) = ( -0.0663837 -0.1361330  0.3574655  )
       227           H   tau( 227) = ( -0.0329779 -0.1273429  0.4011932  )
       228           H   tau( 228) = ( -0.0970544 -0.1817658  0.3664338  )

     number of k points=     1
                       cart. coord. in units 2pi/alat
        k(    1) = (   0.0000000   0.0000000   0.0000000), wk =   2.0000000

                       cryst. coord.
        k(    1) = (   0.0000000   0.0000000   0.0000000), wk =   2.0000000

     Dense  grid:  3466533 G-vectors     FFT dimensions: ( 240, 240, 240)

     Smooth grid:  1225780 G-vectors     FFT dimensions: ( 180, 180, 180)

     Dynamical RAM for                 wfc:      29.61 MB

     Dynamical RAM for     wfc (w. buffer):      29.61 MB

     Dynamical RAM for           str. fact:       4.41 MB

     Dynamical RAM for           local pot:       0.00 MB

     Dynamical RAM for          nlocal pot:      88.83 MB

     Dynamical RAM for                qrad:       1.00 MB

     Dynamical RAM for          rho,v,vnew:      19.80 MB

     Dynamical RAM for               rhoin:       6.60 MB

     Dynamical RAM for            rho*nmix:      35.27 MB

     Dynamical RAM for           G-vectors:       8.66 MB

     Dynamical RAM for          h,s,v(r/c):       8.46 MB

     Dynamical RAM for          <psi|beta>:       2.12 MB

     Dynamical RAM for                 psi:      59.22 MB

     Dynamical RAM for                hpsi:      59.22 MB

     Dynamical RAM for                spsi:      59.22 MB

     Dynamical RAM for      wfcinit/wfcrot:      93.59 MB

     Dynamical RAM for           addusdens:     429.86 MB

     Dynamical RAM for          addusforce:    1096.81 MB

     Estimated static dynamical RAM per process >     222.76 MB

     Estimated max dynamical RAM per process >       1.29 GB

     Estimated total dynamical RAM >      30.93 GB

     Initial potential from superposition of free atoms

     starting charge  607.99844, renormalised to  608.00000

     negative rho (up, down):  1.239E-03 0.000E+00
     Starting wfcs are  456 randomized atomic wfcs
     Checking if some PAW data can be deallocated... 

     total cpu time spent up to now is        5.1 secs

     Self-consistent Calculation

     iteration #  1     ecut=    60.00 Ry     beta= 0.70
     Davidson diagonalization with overlap
     ethr =  1.00E-02,  avg # of iterations =  2.0

     negative rho (up, down):  3.111E-03 0.000E+00

     total cpu time spent up to now is       10.6 secs

     total energy              =   -3335.37006052 Ry
     estimated scf accuracy    <      28.93650469 Ry

     iteration #  2     ecut=    60.00 Ry     beta= 0.70
     Davidson diagonalization with overlap
     ethr =  4.76E-03,  avg # of iterations =  3.0

     negative rho (up, down):  3.012E-03 0.000E+00

     total cpu time spent up to now is       17.2 secs

     total energy              =   -3344.24984124 Ry
     estimated scf accuracy    <      23.07294306 Ry

     iteration #  3     ecut=    60.00 Ry     beta= 0.70
     Davidson diagonalization with overlap
     ethr =  3.79E-03,  avg # of iterations =  2.0

     negative rho (up, down):  2.761E-03 0.000E+00

     total cpu time spent up to now is       22.6 secs

     total energy              =   -3347.51951489 Ry
     estimated scf accuracy    <       0.84565631 Ry

     iteration #  4     ecut=    60.00 Ry     beta= 0.70
     Davidson diagonalization with overlap
     ethr =  1.39E-04,  avg # of iterations =  4.0

     negative rho (up, down):  3.434E-03 0.000E+00

     total cpu time spent up to now is       30.3 secs

     total energy              =   -3348.26073042 Ry
     estimated scf accuracy    <       1.04148937 Ry

     iteration #  5     ecut=    60.00 Ry     beta= 0.70
     Davidson diagonalization with overlap
     ethr =  1.39E-04,  avg # of iterations =  2.0

     negative rho (up, down):  3.586E-03 0.000E+00

     total cpu time spent up to now is       35.0 secs

     total energy              =   -3348.28679340 Ry
     estimated scf accuracy    <       0.23819859 Ry

     iteration #  6     ecut=    60.00 Ry     beta= 0.70
     Davidson diagonalization with overlap
     ethr =  3.92E-05,  avg # of iterations =  2.0

     negative rho (up, down):  3.653E-03 0.000E+00

     total cpu time spent up to now is       39.6 secs

     total energy              =   -3348.27524750 Ry
     estimated scf accuracy    <       0.10709995 Ry

     iteration #  7     ecut=    60.00 Ry     beta= 0.70
     Davidson diagonalization with overlap
     ethr =  1.76E-05,  avg # of iterations =  2.0

     negative rho (up, down):  3.712E-03 0.000E+00

     total cpu time spent up to now is       44.2 secs

     total energy              =   -3348.26831243 Ry
     estimated scf accuracy    <       0.03631125 Ry

     iteration #  8     ecut=    60.00 Ry     beta= 0.70
     Davidson diagonalization with overlap
     ethr =  5.97E-06,  avg # of iterations =  3.0

     negative rho (up, down):  3.682E-03 0.000E+00

     total cpu time spent up to now is       51.2 secs

     total energy              =   -3348.27707627 Ry
     estimated scf accuracy    <       0.00079750 Ry

     iteration #  9     ecut=    60.00 Ry     beta= 0.70
     Davidson diagonalization with overlap
     ethr =  1.31E-07,  avg # of iterations =  5.0

     negative rho (up, down):  3.642E-03 0.000E+00

     total cpu time spent up to now is       58.8 secs

     total energy              =   -3348.27814982 Ry
     estimated scf accuracy    <       0.00116979 Ry

     iteration # 10     ecut=    60.00 Ry     beta= 0.70
     Davidson diagonalization with overlap
     ethr =  1.31E-07,  avg # of iterations =  2.0

     negative rho (up, down):  3.602E-03 0.000E+00

     total cpu time spent up to now is       63.3 secs

     total energy              =   -3348.27774442 Ry
     estimated scf accuracy    <       0.00092515 Ry

     iteration # 11     ecut=    60.00 Ry     beta= 0.70
     Davidson diagonalization with overlap
     ethr =  1.31E-07,  avg # of iterations =  2.0

     negative rho (up, down):  3.594E-03 0.000E+00

     total cpu time spent up to now is       68.7 secs

     total energy              =   -3348.27787892 Ry
     estimated scf accuracy    <       0.00003015 Ry

     iteration # 12     ecut=    60.00 Ry     beta= 0.70
     Davidson diagonalization with overlap
     ethr =  4.96E-09,  avg # of iterations =  4.0

     negative rho (up, down):  3.596E-03 0.000E+00

     total cpu time spent up to now is       75.6 secs

     total energy              =   -3348.27789953 Ry
     estimated scf accuracy    <       0.00001548 Ry

     iteration # 13     ecut=    60.00 Ry     beta= 0.70
     Davidson diagonalization with overlap
     ethr =  2.55E-09,  avg # of iterations =  2.0

     negative rho (up, down):  3.599E-03 0.000E+00

     total cpu time spent up to now is       80.1 secs

     total energy              =   -3348.27789637 Ry
     estimated scf accuracy    <       0.00000852 Ry

     iteration # 14     ecut=    60.00 Ry     beta= 0.70
     Davidson diagonalization with overlap
     ethr =  1.40E-09,  avg # of iterations =  3.0

     negative rho (up, down):  3.600E-03 0.000E+00

     total cpu time spent up to now is       85.7 secs

     total energy              =   -3348.27789756 Ry
     estimated scf accuracy    <       0.00000034 Ry

     iteration # 15     ecut=    60.00 Ry     beta= 0.70
     Davidson diagonalization with overlap
     ethr =  5.59E-11,  avg # of iterations =  4.0

     negative rho (up, down):  3.599E-03 0.000E+00

     total cpu time spent up to now is       92.4 secs

     total energy              =   -3348.27789777 Ry
     estimated scf accuracy    <       0.00000019 Ry

     iteration # 16     ecut=    60.00 Ry     beta= 0.70
     Davidson diagonalization with overlap
     ethr =  3.05E-11,  avg # of iterations =  2.0

     negative rho (up, down):  3.599E-03 0.000E+00

     total cpu time spent up to now is       96.9 secs

     total energy              =   -3348.27789776 Ry
     estimated scf accuracy    <       0.00000009 Ry

     iteration # 17     ecut=    60.00 Ry     beta= 0.70
     Davidson diagonalization with overlap
     ethr =  1.50E-11,  avg # of iterations =  2.0

     negative rho (up, down):  3.599E-03 0.000E+00

     total cpu time spent up to now is      102.1 secs

     total energy              =   -3348.27789778 Ry
     estimated scf accuracy    <       0.00000001 Ry

     iteration # 18     ecut=    60.00 Ry     beta= 0.70
     Davidson diagonalization with overlap
     ethr =  1.79E-12,  avg # of iterations =  3.0

     negative rho (up, down):  3.599E-03 0.000E+00

     total cpu time spent up to now is      108.0 secs

     total energy              =   -3348.27789778 Ry
     estimated scf accuracy    <          4.6E-10 Ry

     iteration # 19     ecut=    60.00 Ry     beta= 0.70
     Davidson diagonalization with overlap
     ethr =  1.00E-13,  avg # of iterations =  7.0

     negative rho (up, down):  3.599E-03 0.000E+00

     total cpu time spent up to now is      114.4 secs

     total energy              =   -3348.27789778 Ry
     estimated scf accuracy    <          4.2E-10 Ry

     iteration # 20     ecut=    60.00 Ry     beta= 0.70
     Davidson diagonalization with overlap
     ethr =  1.00E-13,  avg # of iterations =  2.0

     negative rho (up, down):  3.599E-03 0.000E+00

     total cpu time spent up to now is      119.0 secs

     End of self-consistent calculation

          k = 0.0000 0.0000 0.0000 (153454 PWs)   bands (ev):

   -25.9711 -24.9878 -24.9174 -24.7038 -24.6587 -24.5454 -24.3674 -24.3499
   -24.3404 -24.3112 -24.2564 -24.1632 -24.1283 -24.1000 -24.0079 -23.9832
   -23.9660 -23.9585 -23.9128 -23.8743 -23.8345 -23.8227 -23.7920 -23.7631
   -23.7300 -23.6711 -23.6369 -23.6220 -23.6055 -23.5909 -23.5546 -23.5186
   -23.4990 -23.4806 -23.4703 -23.4315 -23.3863 -23.3423 -23.2964 -23.2786
   -23.2689 -23.2574 -23.2228 -23.1695 -23.0962 -23.0857 -23.0733 -22.9523
   -22.9325 -22.8847 -22.8825 -22.8367 -22.8164 -22.7328 -22.7179 -22.6930
   -22.6786 -22.6502 -22.6463 -22.6275 -22.6213 -22.5578 -22.4920 -22.4428
   -22.4107 -22.3644 -22.2729 -22.2555 -22.2196 -22.2069 -21.9789 -21.9450
   -21.2880 -21.1997 -21.1058 -20.7861 -14.0177 -13.1762 -13.1316 -12.9917
   -12.8968 -12.7254 -12.6619 -12.5380 -12.5022 -12.3937 -12.3702 -12.3260
   -12.2807 -12.2430 -12.2382 -12.1602 -12.1507 -12.1456 -12.0555 -12.0528
   -12.0358 -12.0023 -11.9850 -11.9601 -11.8857 -11.8818 -11.8609 -11.8364
   -11.7774 -11.7676 -11.7516 -11.7228 -11.6632 -11.6496 -11.6254 -11.6185
   -11.5945 -11.5745 -11.5552 -11.5059 -11.4955 -11.4625 -11.4406 -11.4305
   -11.3905 -11.3770 -11.3284 -11.2662 -11.2335 -11.2271 -11.1823 -11.1680
   -11.1516 -11.1218 -11.0451 -11.0371 -11.0306 -10.9812 -10.9548 -10.9374
   -10.9163 -10.8795 -10.7439 -10.7241 -10.6927 -10.6655 -10.6430 -10.6301
   -10.6004 -10.3951 -10.1882 -10.1625  -9.9641  -9.9465  -9.6678  -9.4412
    -9.3959  -9.3046  -9.2799  -9.2541  -9.2316  -9.1849  -9.1023  -9.0244
    -8.8937  -8.8585  -8.8461  -8.8041  -8.7470  -8.7125  -8.6348  -8.5884
    -8.5312  -8.4984  -8.4169  -8.4108  -8.3736  -8.3421  -8.2858  -8.2580
    -8.2303  -8.2152  -8.1686  -8.1300  -8.0855  -8.0586  -8.0494  -7.9939
    -7.9915  -7.9300  -7.9197  -7.8833  -7.8677  -7.8310  -7.7561  -7.7092
    -7.6839  -7.6691  -7.6256  -7.5832  -7.5107  -7.4564  -7.4253  -7.3943
    -7.3648  -7.3277  -7.3085  -7.2677  -7.2132  -7.2010  -7.1312  -7.0664
    -7.0602  -7.0536  -6.9884  -6.9834  -6.9737  -6.9126  -6.8753  -6.8511
    -6.8322  -6.7848  -6.7716  -6.7310  -6.7029  -6.6545  -6.5942  -6.5773
    -6.5619  -6.5160  -6.4525  -6.4442  -6.4027  -6.3999  -6.3848  -6.3788
    -6.3457  -6.3020  -6.2894  -6.2846  -6.2241  -6.1972  -6.1648  -6.1570
    -6.1341  -6.1200  -6.1130  -6.0798  -6.0627  -6.0534  -6.0390  -6.0125
    -5.9709  -5.9494  -5.8981  -5.8865  -5.8740  -5.8409  -5.8064  -5.7903
    -5.7825  -5.7686  -5.7501  -5.7134  -5.7128  -5.6884  -5.6637  -5.6186
    -5.5730  -5.5623  -5.5490  -5.5387  -5.5118  -5.5067  -5.4578  -5.4351
    -5.3619  -5.3425  -5.3337  -5.2875  -5.2813  -5.2679  -5.2430  -5.2334
    -5.1949  -5.1798  -5.0984  -5.0668  -5.0631  -5.0048  -4.9709  -4.9280
    -4.8900  -4.8761  -4.8727  -4.7609  -4.7092  -4.7075  -4.6825  -4.6560
    -4.6424  -4.5983  -4.4769  -3.9701  -3.7212  -3.6457  -3.4798  -3.2477

     occupation numbers 
     1.0000   1.0000   1.0000   1.0000   1.0000   1.0000   1.0000   1.0000
     1.0000   1.0000   1.0000   1.0000   1.0000   1.0000   1.0000   1.0000
     1.0000   1.0000   1.0000   1.0000   1.0000   1.0000   1.0000   1.0000
     1.0000   1.0000   1.0000   1.0000   1.0000   1.0000   1.0000   1.0000
     1.0000   1.0000   1.0000   1.0000   1.0000   1.0000   1.0000   1.0000
     1.0000   1.0000   1.0000   1.0000   1.0000   1.0000   1.0000   1.0000
     1.0000   1.0000   1.0000   1.0000   1.0000   1.0000   1.0000   1.0000
     1.0000   1.0000   1.0000   1.0000   1.0000   1.0000   1.0000   1.0000
     1.0000   1.0000   1.0000   1.0000   1.0000   1.0000   1.0000   1.0000
     1.0000   1.0000   1.0000   1.0000   1.0000   1.0000   1.0000   1.0000
     1.0000   1.0000   1.0000   1.0000   1.0000   1.0000   1.0000   1.0000
     1.0000   1.0000   1.0000   1.0000   1.0000   1.0000   1.0000   1.0000
     1.0000   1.0000   1.0000   1.0000   1.0000   1.0000   1.0000   1.0000
     1.0000   1.0000   1.0000   1.0000   1.0000   1.0000   1.0000   1.0000
     1.0000   1.0000   1.0000   1.0000   1.0000   1.0000   1.0000   1.0000
     1.0000   1.0000   1.0000   1.0000   1.0000   1.0000   1.0000   1.0000
     1.0000   1.0000   1.0000   1.0000   1.0000   1.0000   1.0000   1.0000
     1.0000   1.0000   1.0000   1.0000   1.0000   1.0000   1.0000   1.0000
     1.0000   1.0000   1.0000   1.0000   1.0000   1.0000   1.0000   1.0000
     1.0000   1.0000   1.0000   1.0000   1.0000   1.0000   1.0000   1.0000
     1.0000   1.0000   1.0000   1.0000   1.0000   1.0000   1.0000   1.0000
     1.0000   1.0000   1.0000   1.0000   1.0000   1.0000   1.0000   1.0000
     1.0000   1.0000   1.0000   1.0000   1.0000   1.0000   1.0000   1.0000
     1.0000   1.0000   1.0000   1.0000   1.0000   1.0000   1.0000   1.0000
     1.0000   1.0000   1.0000   1.0000   1.0000   1.0000   1.0000   1.0000
     1.0000   1.0000   1.0000   1.0000   1.0000   1.0000   1.0000   1.0000
     1.0000   1.0000   1.0000   1.0000   1.0000   1.0000   1.0000   1.0000
     1.0000   1.0000   1.0000   1.0000   1.0000   1.0000   1.0000   1.0000
     1.0000   1.0000   1.0000   1.0000   1.0000   1.0000   1.0000   1.0000
     1.0000   1.0000   1.0000   1.0000   1.0000   1.0000   1.0000   1.0000
     1.0000   1.0000   1.0000   1.0000   1.0000   1.0000   1.0000   1.0000
     1.0000   1.0000   1.0000   1.0000   1.0000   1.0000   1.0000   1.0000
     1.0000   1.0000   1.0000   1.0000   1.0000   1.0000   1.0000   1.0000
     1.0000   1.0000   1.0000   1.0000   1.0000   1.0000   1.0000   1.0000
     1.0000   1.0000   1.0000   1.0000   1.0000   1.0000   1.0000   1.0000
     1.0000   1.0000   1.0000   1.0000   1.0000   1.0000   1.0000   1.0000
     1.0000   1.0000   1.0000   1.0000   1.0000   1.0000   1.0000   1.0000
     1.0000   1.0000   1.0000   1.0000   1.0000   1.0000   1.0000   1.0000

     highest occupied level (ev):    -3.2477

!    total energy              =   -3348.27789778 Ry
     estimated scf accuracy    <          4.3E-11 Ry

     The total energy is the sum of the following terms:
     one-electron contribution =   -9768.68583469 Ry
     hartree contribution      =    5040.35759668 Ry
     xc contribution           =    -671.37516225 Ry
     ewald contribution        =    2773.82203949 Ry
     one-center paw contrib.   =    -722.39653701 Ry
      -> PAW hartree energy AE =     112.88451862 Ry
      -> PAW hartree energy PS =    -112.34768887 Ry
      -> PAW xc energy AE      =     -67.97242451 Ry
      -> PAW xc energy PS      =      29.41276018 Ry
      -> total E_H with PAW    =    5040.89442643 Ry
      -> total E_XC with PAW   =    -709.93482658 Ry

     convergence has been achieved in  20 iterations

     negative rho (up, down):  3.599E-03 0.000E+00

     Forces acting on atoms (cartesian axes, Ry/au):

     atom    1 type  2   force =     0.00422230   -0.02426884    0.00454368
     atom    2 type  1   force =    -0.01077332    0.04738167   -0.03670129
     atom    3 type  1   force =     0.00027849   -0.01423726    0.03659271
     atom    4 type  2   force =    -0.00228974    0.01778593    0.02572030
     atom    5 type  1   force =    -0.02772146   -0.02331101   -0.04971085
     atom    6 type  1   force =     0.02235544    0.01936655    0.03214663
     atom    7 type  2   force =     0.00065119    0.02256007    0.01635546
     atom    8 type  1   force =     0.00071798   -0.04392465   -0.04034925
     atom    9 type  1   force =    -0.00827704    0.02626242    0.03875122
     atom   10 type  2   force =     0.02824434   -0.01067580    0.02881550
     atom   11 type  1   force =    -0.05390101   -0.01705286   -0.01389081
     atom   12 type  1   force =     0.03639634    0.02172012    0.00590913
     atom   13 type  2   force =     0.00265235   -0.06135066   -0.01809006
     atom   14 type  1   force =     0.01192862    0.00752487    0.00293488
     atom   15 type  1   force =    -0.00741193    0.05451265    0.01443468
     atom   16 type  2   force =    -0.00415785   -0.00075619   -0.04338157
     atom   17 type  1   force =    -0.02109606    0.00447759    0.02405887
     atom   18 type  1   force =     0.00986256    0.00558364    0.01355827
     atom   19 type  2   force =    -0.01345241    0.03306150    0.02022084
     atom   20 type  1   force =     0.01616146    0.02349550    0.00506075
     atom   21 type  1   force =     0.00519748   -0.06015140   -0.01132539
     atom   22 type  2   force =    -0.00217689   -0.01406806    0.00573237
     atom   23 type  1   force =    -0.00202900    0.02000393   -0.03194013
     atom   24 type  1   force =    -0.02174391   -0.03857834    0.01940122
     atom   25 type  2   force =     0.00579662    0.00276590   -0.00069956
     atom   26 type  1   force =    -0.03085266    0.00723296   -0.01323359
     atom   27 type  1   force =     0.02926197   -0.00194489    0.00425882
     atom   28 type  2   force =    -0.01278137   -0.02130513   -0.00641088
     atom   29 type  1   force =     0.00079627    0.03255077   -0.00006157
     atom   30 type  1   force =     0.02230577   -0.03063602   -0.01282248
     atom   31 type  2   force =    -0.00857546    0.01255586    0.00382070
     atom   32 type  1   force =    -0.01954368    0.00094442   -0.01165951
     atom   33 type  1   force =     0.03655557   -0.02609887    0.02209132
     atom   34 type  2   force =     0.01788179    0.00638100    0.01370973
     atom   35 type  1   force =    -0.01957286   -0.02986181    0.01788716
     atom   36 type  1   force =     0.01156110    0.01872125   -0.02506370
     atom   37 type  2   force =    -0.02081105    0.02698756    0.01179682
     atom   38 type  1   force =     0.03815706   -0.01243068   -0.01864747
     atom   39 type  1   force =    -0.00452104   -0.00848186    0.00438534
     atom   40 type  2   force =     0.03368424    0.01821650    0.01348121
     atom   41 type  1   force =    -0.01256413    0.02295289   -0.04994742
     atom   42 type  1   force =    -0.03325970   -0.03857703    0.03623709
     atom   43 type  2   force =    -0.02019198    0.01827432    0.02425194
     atom   44 type  1   force =     0.01279340   -0.01166820   -0.02860283
     atom   45 type  1   force =    -0.00955171   -0.00733014    0.01379095
     atom   46 type  2   force =    -0.00448286   -0.02909111    0.01620241
     atom   47 type  1   force =    -0.00599149    0.01136091   -0.05769978
     atom   48 type  1   force =     0.01201164    0.02376260    0.04702659
     atom   49 type  2   force =    -0.02427224   -0.00684704   -0.03082372
     atom   50 type  1   force =     0.05935207    0.00150970    0.00232891
     atom   51 type  1   force =    -0.03890065    0.01146978    0.03337074
     atom   52 type  2   force =    -0.01312550    0.00546870    0.02334002
     atom   53 type  1   force =     0.03022214   -0.01392647    0.00659656
     atom   54 type  1   force =    -0.02231914    0.00193902   -0.00178670
     atom   55 type  2   force =     0.02259507    0.00824433   -0.04406912
     atom   56 type  1   force =     0.01367157    0.01306216    0.05596888
     atom   57 type  1   force =    -0.02771388   -0.02081167   -0.01280468
     atom   58 type  2   force =    -0.01291155   -0.00690327    0.02546294
     atom   59 type  1   force =    -0.01591848   -0.00029017   -0.01635037
     atom   60 type  1   force =     0.02257074   -0.00103882    0.01168598
     atom   61 type  2   force =     0.02492767    0.01759744   -0.01473671
     atom   62 type  1   force =     0.04219622    0.00392271   -0.00100951
     atom   63 type  1   force =    -0.05221321   -0.02409882    0.01112935
     atom   64 type  2   force =    -0.00124294   -0.01004451    0.02309896
     atom   65 type  1   force =    -0.03119956   -0.00685219    0.03267070
     atom   66 type  1   force =     0.04454997    0.01022940   -0.04074247
     atom   67 type  2   force =    -0.01312624   -0.00724689   -0.01086840
     atom   68 type  1   force =     0.00064235   -0.01944547   -0.04233211
     atom   69 type  1   force =     0.00003801    0.03735225    0.04464742
     atom   70 type  2   force =    -0.01887592   -0.01570174   -0.01647730
     atom   71 type  1   force =    -0.00441742    0.00241155   -0.01377888
     atom   72 type  1   force =     0.00358329    0.01316597    0.02502308
     atom   73 type  2   force =     0.02546051   -0.01465735    0.03448508
     atom   74 type  1   force =     0.01175642    0.00996315    0.01986718
     atom   75 type  1   force =    -0.02812355    0.01300190   -0.05004142
     atom   76 type  2   force =     0.02989153    0.02746574    0.01861442
     atom   77 type  1   force =     0.01129085   -0.01879181    0.01697065
     atom   78 type  1   force =    -0.04562335   -0.01668718   -0.02286213
     atom   79 type  2   force =    -0.01457850   -0.00610404   -0.02916371
     atom   80 type  1   force =     0.03398000    0.01971468    0.04742995
     atom   81 type  1   force =    -0.01241470   -0.00885394   -0.03351993
     atom   82 type  2   force =    -0.00231264   -0.00898895   -0.02079203
     atom   83 type  1   force =     0.01845969   -0.02639660   -0.00153201
     atom   84 type  1   force =    -0.02307947    0.03292405    0.01411182
     atom   85 type  2   force =     0.02796566    0.01467567    0.00758491
     atom   86 type  1   force =    -0.00958685   -0.01322765   -0.01417617
     atom   87 type  1   force =    -0.03799097    0.00787618   -0.00186301
     atom   88 type  2   force =    -0.02872274   -0.02007830   -0.04599133
     atom   89 type  1   force =     0.05268035    0.00272208   -0.01648987
     atom   90 type  1   force =    -0.03231904    0.01361251    0.04337355
     atom   91 type  2   force =     0.00559375   -0.01734575   -0.01210341
     atom   92 type  1   force =     0.02834857    0.02201950    0.04973363
     atom   93 type  1   force =    -0.03674629    0.00089398   -0.02561807
     atom   94 type  2   force =     0.01077905    0.00431023    0.03923801
     atom   95 type  1   force =     0.03142325   -0.03061198   -0.02902317
     atom   96 type  1   force =    -0.04636327    0.03321456   -0.00577332
     atom   97 type  2   force =    -0.00319736   -0.00554113   -0.01164810
     atom   98 type  1   force =     0.00283420    0.00112306    0.01139158
     atom   99 type  1   force =    -0.00431923    0.00201767   -0.00797831
     atom  100 type  2   force =    -0.02074550    0.00393832   -0.02012980
     atom  101 type  1   force =     0.00344246    0.01834061   -0.00904537
     atom  102 type  1   force =     0.02907690   -0.01187657    0.01390704
     atom  103 type  2   force =     0.00774317    0.03566379    0.00599680
     atom  104 type  1   force =     0.02234767    0.01511878   -0.03856743
     atom  105 type  1   force =    -0.02528732   -0.02222216    0.03318054
     atom  106 type  2   force =     0.01266322   -0.01375694    0.00100530
     atom  107 type  1   force =     0.00561466    0.01309897    0.02471341
     atom  108 type  1   force =    -0.01849211   -0.01353331   -0.01348516
     atom  109 type  2   force =    -0.01262836    0.03560742    0.00334093
     atom  110 type  1   force =     0.00984428   -0.03931047   -0.00268429
     atom  111 type  1   force =     0.00930706    0.00729627    0.01858251
     atom  112 type  2   force =     0.00706335    0.03089272   -0.01916837
     atom  113 type  1   force =    -0.02482860    0.03160583    0.02883056
     atom  114 type  1   force =     0.01980003   -0.05508612   -0.01736152
     atom  115 type  2   force =     0.00869407    0.01611038   -0.00763088
     atom  116 type  1   force =    -0.01478283    0.02610959   -0.01385127
     atom  117 type  1   force =    -0.00625916   -0.02977453    0.03936153
     atom  118 type  2   force =     0.02584331    0.00211039    0.00029350
     atom  119 type  1   force =    -0.03588121   -0.03043957    0.04563777
     atom  120 type  1   force =     0.00163011    0.01586653   -0.05169411
     atom  121 type  2   force =    -0.05146093   -0.01830464    0.00002402
     atom  122 type  1   force =     0.05170742    0.02050644    0.00288244
     atom  123 type  1   force =    -0.00506988   -0.01624607    0.00571792
     atom  124 type  2   force =     0.02036274    0.01733303    0.00816659
     atom  125 type  1   force =     0.01728406   -0.04214371   -0.03890312
     atom  126 type  1   force =    -0.03597767    0.01714713    0.02912546
     atom  127 type  2   force =     0.01808354    0.03406639   -0.02642594
     atom  128 type  1   force =     0.00376479    0.01713074   -0.01133093
     atom  129 type  1   force =    -0.02563380   -0.04359079    0.03160972
     atom  130 type  2   force =    -0.03334437    0.00010465    0.00545052
     atom  131 type  1   force =     0.00386083    0.00391253    0.03626225
     atom  132 type  1   force =     0.03598579    0.00569153   -0.03740169
     atom  133 type  2   force =    -0.01226934    0.00113406   -0.01937914
     atom  134 type  1   force =     0.03107119   -0.01034929    0.03847415
     atom  135 type  1   force =    -0.00462532    0.01394660   -0.02083804
     atom  136 type  2   force =     0.01218852   -0.01108799    0.01739207
     atom  137 type  1   force =     0.01479342    0.01503325   -0.05732459
     atom  138 type  1   force =    -0.01766336    0.00090678    0.04018362
     atom  139 type  2   force =    -0.04247338   -0.00161574    0.03748354
     atom  140 type  1   force =    -0.01096051    0.00864618   -0.00565931
     atom  141 type  1   force =     0.04208780   -0.00200167   -0.04109685
     atom  142 type  2   force =    -0.01410543    0.01523916   -0.04011957
     atom  143 type  1   force =    -0.01007391    0.03971936    0.03213331
     atom  144 type  1   force =     0.01917671   -0.05348451   -0.00403375
     atom  145 type  2   force =     0.01875572   -0.01659706   -0.03715208
     atom  146 type  1   force =    -0.02797423    0.05014049   -0.00592638
     atom  147 type  1   force =     0.01189095   -0.03926600    0.03885747
     atom  148 type  2   force =     0.01513352    0.03133083    0.00910734
     atom  149 type  1   force =    -0.03664963    0.02446398   -0.01286805
     atom  150 type  1   force =     0.01264447   -0.05584726   -0.00386377
     atom  151 type  2   force =     0.04071018    0.05272397   -0.01359421
     atom  152 type  1   force =     0.01896768   -0.02977079    0.03948202
     atom  153 type  1   force =    -0.03584384   -0.00422290   -0.03655225
     atom  154 type  2   force =    -0.03613425   -0.00134498    0.00734592
     atom  155 type  1   force =     0.03604847    0.01410390    0.03937379
     atom  156 type  1   force =     0.00733860   -0.01638837   -0.04943253
     atom  157 type  2   force =     0.01128406   -0.02875322    0.00576182
     atom  158 type  1   force =    -0.01970754    0.03765436    0.04116635
     atom  159 type  1   force =     0.00795074   -0.01504891   -0.04564693
     atom  160 type  2   force =     0.03956515   -0.00876901   -0.00420983
     atom  161 type  1   force =    -0.02781116   -0.03718093   -0.03073337
     atom  162 type  1   force =    -0.00299577    0.04760870    0.03222631
     atom  163 type  2   force =    -0.01516854    0.00031685   -0.02519986
     atom  164 type  1   force =     0.04841753    0.02074002    0.00558271
     atom  165 type  1   force =    -0.02982926   -0.00893755    0.02277343
     atom  166 type  2   force =     0.02152059   -0.00860356    0.01008951
     atom  167 type  1   force =    -0.01714072   -0.02803999   -0.04780748
     atom  168 type  1   force =    -0.00406953    0.04178173    0.03623548
     atom  169 type  2   force =    -0.01303656    0.01333923    0.00773620
     atom  170 type  1   force =    -0.01919955    0.02737843    0.00112249
     atom  171 type  1   force =     0.01876143   -0.06065301   -0.01070427
     atom  172 type  2   force =     0.02788918   -0.01481312   -0.00186569
     atom  173 type  1   force =    -0.00868669   -0.03275695    0.02644331
     atom  174 type  1   force =    -0.01154754    0.02917067   -0.02317606
     atom  175 type  2   force =     0.01181494    0.01399938   -0.03418175
     atom  176 type  1   force =     0.00843566   -0.04942244   -0.02007710
     atom  177 type  1   force =    -0.00875437    0.02903553    0.04761664
     atom  178 type  2   force =     0.00725353    0.03031782   -0.01409822
     atom  179 type  1   force =    -0.04701652   -0.00140858   -0.01091448
     atom  180 type  1   force =     0.04776785   -0.02839571    0.02265169
     atom  181 type  2   force =     0.04170676    0.00387244   -0.00213526
     atom  182 type  1   force =     0.01940285    0.00193773   -0.00008568
     atom  183 type  1   force =    -0.05042296   -0.01252781   -0.01286922
     atom  184 type  2   force =    -0.02616919   -0.00356762   -0.03464585
     atom  185 type  1   force =     0.01950653   -0.03955483    0.03223465
     atom  186 type  1   force =     0.00171782    0.03287107   -0.01688277
     atom  187 type  2   force =     0.00254642    0.01153556    0.02687720
     atom  188 type  1   force =    -0.02711838   -0.03566660   -0.01811207
     atom  189 type  1   force =     0.01471899    0.02366525   -0.00864330
     atom  190 type  2   force =     0.04267356   -0.01400470   -0.00863735
     atom  191 type  1   force =     0.00883961   -0.02343633    0.00260071
     atom  192 type  1   force =    -0.05075924    0.03175284    0.00346939
     atom  193 type  2   force =    -0.01442132   -0.01757113   -0.02127674
     atom  194 type  1   force =    -0.04465147    0.00716202    0.01457244
     atom  195 type  1   force =     0.03765596    0.00095954   -0.00938898
     atom  196 type  2   force =    -0.02158534    0.00364570   -0.02276434
     atom  197 type  1   force =     0.02711533   -0.00760775    0.03915105
     atom  198 type  1   force =    -0.01063653    0.00386752   -0.00968126
     atom  199 type  2   force =     0.02779102   -0.01652842   -0.00186820
     atom  200 type  1   force =    -0.01407576   -0.02474468   -0.01517461
     atom  201 type  1   force =    -0.00486223    0.03517762    0.01733202
     atom  202 type  2   force =    -0.00842285   -0.00580252   -0.03563806
     atom  203 type  1   force =    -0.01636778   -0.02008568    0.03050900
     atom  204 type  1   force =     0.02901314    0.03053371   -0.01395588
     atom  205 type  2   force =     0.01867085   -0.02694517   -0.00092535
     atom  206 type  1   force =    -0.04794160    0.03498469    0.01148436
     atom  207 type  1   force =     0.02888554   -0.01472704   -0.00217218
     atom  208 type  2   force =     0.02542748   -0.02146928    0.02889867
     atom  209 type  1   force =     0.02575776    0.01247307    0.00386319
     atom  210 type  1   force =    -0.04470986    0.01352158   -0.03456465
     atom  211 type  2   force =     0.00543976    0.00198782   -0.01797744
     atom  212 type  1   force =    -0.00999982    0.03486847    0.02611228
     atom  213 type  1   force =    -0.00201167   -0.03273996    0.00210284
     atom  214 type  2   force =     0.02619621    0.00595595    0.01980572
     atom  215 type  1   force =    -0.02635310    0.00657444    0.02792400
     atom  216 type  1   force =    -0.00718806   -0.01346326   -0.04597327
     atom  217 type  2   force =     0.00224361   -0.00840426   -0.00149884
     atom  218 type  1   force =     0.03804109   -0.01316716    0.02709208
     atom  219 type  1   force =    -0.02826878    0.00144836   -0.03196473
     atom  220 type  2   force =    -0.01138535    0.00721586    0.02190402
     atom  221 type  1   force =     0.01689861   -0.03955616   -0.01117312
     atom  222 type  1   force =    -0.01428928    0.05308555   -0.01226064
     atom  223 type  2   force =     0.01770974    0.00801050    0.04132319
     atom  224 type  1   force =    -0.00652427    0.01226356   -0.05090405
     atom  225 type  1   force =     0.00391527   -0.01062392    0.03355150
     atom  226 type  2   force =    -0.00459858   -0.01145816    0.04470253
     atom  227 type  1   force =    -0.01582720   -0.01650902   -0.04520438
     atom  228 type  1   force =     0.03031644    0.03339295   -0.01503191
     The non-local contrib.  to forces
     atom    1 type  2   force =     1.25280755   -1.33575191   -1.11099828
     atom    2 type  1   force =    -0.04740740    0.07657583   -0.03655481
     atom    3 type  1   force =    -0.01638412   -0.01554740    0.09360712
     atom    4 type  2   force =     1.93382642   -0.14402520    0.02939904
     atom    5 type  1   force =    -0.06185582   -0.03477863   -0.06705518
     atom    6 type  1   force =    -0.04383211    0.05156359    0.06934408
     atom    7 type  2   force =     0.59493826    1.89839357   -0.79526632
     atom    8 type  1   force =    -0.00867498   -0.08284425   -0.05013694
     atom    9 type  1   force =    -0.02085472   -0.00887566    0.09262181
     atom   10 type  2   force =     0.64664580   -1.12391947    1.54284178
     atom   11 type  1   force =    -0.08979033   -0.00363267   -0.03896556
     atom   12 type  1   force =     0.05608222    0.07108933   -0.03840500
     atom   13 type  2   force =    -1.23271045   -1.54127727    0.35756181
     atom   14 type  1   force =     0.08292160   -0.02389667   -0.04103274
     atom   15 type  1   force =    -0.00651038    0.09397257    0.02268003
     atom   16 type  2   force =    -0.52442307   -1.06940049   -1.35458226
     atom   17 type  1   force =    -0.02612575   -0.00491295    0.09415307
     atom   18 type  1   force =     0.06805620    0.06704753   -0.01716886
     atom   19 type  2   force =     0.00883395    1.18506711   -1.63937456
     atom   20 type  1   force =    -0.01588375    0.04178516    0.08378939
     atom   21 type  1   force =     0.00289795   -0.09729207    0.00477173
     atom   22 type  2   force =     1.78883447   -0.19826004    0.43583149
     atom   23 type  1   force =    -0.03390190    0.05915082   -0.06946570
     atom   24 type  1   force =    -0.06755260   -0.05325322    0.04130233
     atom   25 type  2   force =     0.13682927    0.86300065    1.61398054
     atom   26 type  1   force =    -0.08414762   -0.01228432   -0.04752375
     atom   27 type  1   force =     0.07389532   -0.04230552   -0.04336962
     atom   28 type  2   force =    -1.84399512   -0.32143627    0.02889026
     atom   29 type  1   force =     0.04527577    0.08537050    0.01717231
     atom   30 type  1   force =     0.06223517   -0.07374728   -0.01850676
     atom   31 type  2   force =     0.93839516    1.64489552   -0.41032236
     atom   32 type  1   force =    -0.09656757   -0.00927392   -0.01668258
     atom   33 type  1   force =     0.04015620   -0.07925600    0.04273633
     atom   34 type  2   force =    -1.10581987   -0.48995768   -1.33253760
     atom   35 type  1   force =     0.00685492   -0.04702474    0.08514501
     atom   36 type  1   force =     0.06024262    0.07374733   -0.00621067
     atom   37 type  2   force =    -1.27021677    0.72779913   -1.02232238
     atom   38 type  1   force =     0.08822095   -0.03564720   -0.02733344
     atom   39 type  1   force =    -0.01470760   -0.00543395    0.09521853
     atom   40 type  2   force =     1.68362021    0.93959752    1.12175269
     atom   41 type  1   force =    -0.02515458    0.03127310   -0.08963572
     atom   42 type  1   force =    -0.05106753   -0.07600821    0.03214617
     atom   43 type  2   force =     0.82877866    0.05035600    1.46591846
     atom   44 type  1   force =     0.03653443   -0.02176888   -0.08897917
     atom   45 type  1   force =    -0.09216536    0.02509467   -0.00290291
     atom   46 type  2   force =    -0.09231476   -2.18269743    0.32676204
     atom   47 type  1   force =    -0.00209098    0.04280420   -0.08770227
     atom   48 type  1   force =     0.01104072    0.06265067    0.07572655
     atom   49 type  2   force =    -0.86700467    0.44539821   -1.77963794
     atom   50 type  1   force =     0.09601087    0.00263927    0.01833850
     atom   51 type  1   force =    -0.05389470   -0.03240834    0.07599716
     atom   52 type  2   force =     0.25959892    1.38191879   -1.02069504
     atom   53 type  1   force =     0.06981353   -0.05785940    0.03524249
     atom   54 type  1   force =    -0.08521638   -0.01766024    0.03771856
     atom   55 type  2   force =     1.19678812    0.88694513   -1.60493684
     atom   56 type  1   force =     0.01493645    0.01158325    0.09501623
     atom   57 type  1   force =    -0.07927564   -0.05502039   -0.02317357
     atom   58 type  2   force =    -0.22864371    0.72546487    1.66180972
     atom   59 type  1   force =    -0.06974251    0.00564912   -0.06869751
     atom   60 type  1   force =     0.08178160   -0.04630334   -0.03142315
     atom   61 type  2   force =     0.20584874    1.01506904   -1.96411510
     atom   62 type  1   force =     0.07537803   -0.00461834    0.06073013
     atom   63 type  1   force =    -0.08017385   -0.04269673    0.03304782
     atom   64 type  2   force =     0.94183822   -0.63802691    1.78423244
     atom   65 type  1   force =    -0.09678729   -0.00778705   -0.01282644
     atom   66 type  1   force =     0.04644703    0.03686710   -0.07759410
     atom   67 type  2   force =     1.07303461   -1.71587620    0.31375562
     atom   68 type  1   force =    -0.05611536    0.01008285   -0.07766010
     atom   69 type  1   force =    -0.00439018    0.07554745    0.06185632
     atom   70 type  2   force =    -0.76112574    1.46822118   -0.59783288
     atom   71 type  1   force =    -0.01530936   -0.08191697   -0.04601437
     atom   72 type  1   force =     0.06119723   -0.00914804    0.07474796
     atom   73 type  2   force =    -0.94576499   -0.65367401    1.57914734
     atom   74 type  1   force =     0.09640477    0.00592877    0.00525761
     atom   75 type  1   force =    -0.03564374    0.02846743   -0.08589859
     atom   76 type  2   force =     0.50511367    1.94830444    0.34062264
     atom   77 type  1   force =     0.06208081   -0.06962277    0.02839702
     atom   78 type  1   force =    -0.08298641   -0.03427806   -0.03967780
     atom   79 type  2   force =    -1.94538558   -0.50618726    0.69519785
     atom   80 type  1   force =     0.07444089    0.03566056    0.05208988
     atom   81 type  1   force =     0.01854875   -0.00765878   -0.09464030
     atom   82 type  2   force =    -0.86873744   -1.05960939   -1.02491154
     atom   83 type  1   force =     0.08617786   -0.02424501    0.03827289
     atom   84 type  1   force =    -0.02508324    0.09234753    0.01882164
     atom   85 type  2   force =     0.30863870    0.23883445   -1.61201255
[...]
     atom   18 type  1   force =    -0.00000008   -0.00000008   -0.00000006
     atom   19 type  2   force =    -0.00000010    0.00000061   -0.00000028
     atom   20 type  1   force =    -0.00000000   -0.00000001   -0.00000014
     atom   21 type  1   force =    -0.00000002    0.00000026   -0.00000001
     atom   22 type  2   force =     0.00000035   -0.00000011    0.00000025
     atom   23 type  1   force =     0.00000006   -0.00000006    0.00000007
     atom   24 type  1   force =     0.00000003    0.00000002   -0.00000002
     atom   25 type  2   force =     0.00000000    0.00000037    0.00000064
     atom   26 type  1   force =     0.00000016    0.00000004    0.00000014
     atom   27 type  1   force =    -0.00000011    0.00000010    0.00000010
     atom   28 type  2   force =    -0.00000030   -0.00000028    0.00000008
     atom   29 type  1   force =    -0.00000004   -0.00000010   -0.00000001
     atom   30 type  1   force =    -0.00000008    0.00000003    0.00000001
     atom   31 type  2   force =     0.00000027    0.00000066   -0.00000002
     atom   32 type  1   force =     0.00000019    0.00000007    0.00000003
     atom   33 type  1   force =    -0.00000009    0.00000017   -0.00000008
     atom   34 type  2   force =    -0.00000032   -0.00000028   -0.00000034
     atom   35 type  1   force =    -0.00000001    0.00000007   -0.00000017
     atom   36 type  1   force =    -0.00000012   -0.00000016   -0.00000000
     atom   37 type  2   force =    -0.00000023    0.00000045   -0.00000027
     atom   38 type  1   force =    -0.00000015    0.00000010   -0.00000000
     atom   39 type  1   force =    -0.00000001    0.00000007   -0.00000012
     atom   40 type  2   force =     0.00000067    0.00000038    0.00000024
     atom   41 type  1   force =     0.00000010    0.00000000    0.00000015
     atom   42 type  1   force =     0.00000015    0.00000012   -0.00000002
     atom   43 type  2   force =     0.00000002    0.00000011    0.00000077
     atom   44 type  1   force =    -0.00000008    0.00000004    0.00000026
     atom   45 type  1   force =     0.00000021   -0.00000004    0.00000006
     atom   46 type  2   force =    -0.00000003   -0.00000068    0.00000041
     atom   47 type  1   force =     0.00000000   -0.00000017    0.00000023
     atom   48 type  1   force =    -0.00000004   -0.00000021   -0.00000014
     atom   49 type  2   force =    -0.00000050    0.00000011   -0.00000061
     atom   50 type  1   force =    -0.00000029    0.00000000   -0.00000009
     atom   51 type  1   force =     0.00000008    0.00000002   -0.00000023
     atom   52 type  2   force =     0.00000002    0.00000044   -0.00000018
     atom   53 type  1   force =    -0.00000015    0.00000011   -0.00000005
     atom   54 type  1   force =     0.00000019    0.00000008   -0.00000007
     atom   55 type  2   force =     0.00000025    0.00000017   -0.00000106
     atom   56 type  1   force =     0.00000001   -0.00000000   -0.00000024
     atom   57 type  1   force =     0.00000012    0.00000008   -0.00000009
     atom   58 type  2   force =    -0.00000025    0.00000014    0.00000019
     atom   59 type  1   force =     0.00000003   -0.00000001    0.00000008
     atom   60 type  1   force =    -0.00000007    0.00000001    0.00000003
     atom   61 type  2   force =     0.00000036    0.00000032   -0.00000056
     atom   62 type  1   force =    -0.00000007    0.00000004   -0.00000011
     atom   63 type  1   force =     0.00000017    0.00000010   -0.00000010
     atom   64 type  2   force =     0.00000014   -0.00000021    0.00000080
     atom   65 type  1   force =     0.00000019    0.00000001    0.00000007
     atom   66 type  1   force =    -0.00000009   -0.00000007    0.00000022
     atom   67 type  2   force =     0.00000009   -0.00000039   -0.00000015
     atom   68 type  1   force =     0.00000006    0.00000000    0.00000012
     atom   69 type  1   force =     0.00000002   -0.00000016   -0.00000014
     atom   70 type  2   force =    -0.00000018    0.00000034   -0.00000025
     atom   71 type  1   force =     0.00000001    0.00000016    0.00000007
     atom   72 type  1   force =    -0.00000007    0.00000003   -0.00000009
     atom   73 type  2   force =     0.00000029   -0.00000033    0.00000067
     atom   74 type  1   force =    -0.00000001   -0.00000006    0.00000008
     atom   75 type  1   force =     0.00000005   -0.00000004    0.00000012
     atom   76 type  2   force =     0.00000000    0.00000019    0.00000013
     atom   77 type  1   force =    -0.00000001    0.00000009   -0.00000001
     atom   78 type  1   force =     0.00000012    0.00000007    0.00000007
     atom   79 type  2   force =    -0.00000076   -0.00000011   -0.00000011
     atom   80 type  1   force =    -0.00000017   -0.00000008   -0.00000011
     atom   81 type  1   force =    -0.00000008    0.00000001    0.00000015
     atom   82 type  2   force =     0.00000005   -0.00000051   -0.00000035
     atom   83 type  1   force =    -0.00000005    0.00000000   -0.00000005
     atom   84 type  1   force =     0.00000003   -0.00000010   -0.00000005
     atom   85 type  2   force =     0.00000036    0.00000023   -0.00000008
     atom   86 type  1   force =     0.00000005    0.00000004   -0.00000000
     atom   87 type  1   force =     0.00000013   -0.00000001   -0.00000002
     atom   88 type  2   force =    -0.00000020   -0.00000036   -0.00000072
     atom   89 type  1   force =    -0.00000009   -0.00000004   -0.00000006
     atom   90 type  1   force =    -0.00000000   -0.00000004   -0.00000010
     atom   91 type  2   force =     0.00000008   -0.00000017   -0.00000027
     atom   92 type  1   force =    -0.00000001   -0.00000007   -0.00000014
     atom   93 type  1   force =     0.00000013   -0.00000001    0.00000003
     atom   94 type  2   force =    -0.00000000   -0.00000002    0.00000020
     atom   95 type  1   force =    -0.00000004    0.00000007    0.00000012
     atom   96 type  1   force =     0.00000013   -0.00000008    0.00000006
     atom   97 type  2   force =     0.00000040   -0.00000011    0.00000005
     atom   98 type  1   force =     0.00000008   -0.00000002   -0.00000001
     atom   99 type  1   force =     0.00000004    0.00000001    0.00000005
     atom  100 type  2   force =    -0.00000051   -0.00000008    0.00000003
     atom  101 type  1   force =    -0.00000006   -0.00000009    0.00000016
     atom  102 type  1   force =    -0.00000020    0.00000005   -0.00000006
     atom  103 type  2   force =    -0.00000017    0.00000070    0.00000044
     atom  104 type  1   force =    -0.00000008    0.00000006    0.00000012
     atom  105 type  1   force =     0.00000004    0.00000017   -0.00000006
     atom  106 type  2   force =     0.00000027   -0.00000028   -0.00000003
     atom  107 type  1   force =     0.00000005   -0.00000007   -0.00000004
     atom  108 type  1   force =     0.00000005   -0.00000002    0.00000005
     atom  109 type  2   force =    -0.00000018    0.00000044   -0.00000025
     atom  110 type  1   force =    -0.00000003    0.00000016   -0.00000002
     atom  111 type  1   force =    -0.00000005   -0.00000004   -0.00000011
     atom  112 type  2   force =    -0.00000004    0.00000061   -0.00000032
     atom  113 type  1   force =     0.00000002    0.00000006   -0.00000004
     atom  114 type  1   force =    -0.00000002    0.00000012    0.00000000
     atom  115 type  2   force =    -0.00000019    0.00000017    0.00000007
     atom  116 type  1   force =    -0.00000003   -0.00000005    0.00000010
     atom  117 type  1   force =    -0.00000002    0.00000013   -0.00000002
     atom  118 type  2   force =     0.00000028    0.00000034    0.00000012
     atom  119 type  1   force =     0.00000016    0.00000016   -0.00000010
     atom  120 type  1   force =     0.00000005   -0.00000001    0.00000024
     atom  121 type  2   force =    -0.00000117   -0.00000017    0.00000028
     atom  122 type  1   force =    -0.00000034   -0.00000008    0.00000005
     atom  123 type  1   force =    -0.00000006    0.00000016    0.00000016
     atom  124 type  2   force =     0.00000105    0.00000037    0.00000025
     atom  125 type  1   force =     0.00000012    0.00000017    0.00000018
     atom  126 type  1   force =     0.00000031   -0.00000001   -0.00000009
     atom  127 type  2   force =    -0.00000022    0.00000031   -0.00000073
     atom  128 type  1   force =    -0.00000017   -0.00000011   -0.00000008
     atom  129 type  1   force =     0.00000003    0.00000020   -0.00000024
     atom  130 type  2   force =    -0.00000035   -0.00000030    0.00000038
     atom  131 type  1   force =    -0.00000000   -0.00000008   -0.00000007
     atom  132 type  1   force =    -0.00000009   -0.00000006    0.00000012
     atom  133 type  2   force =    -0.00000005    0.00000011   -0.00000044
     atom  134 type  1   force =    -0.00000006    0.00000007   -0.00000013
     atom  135 type  1   force =     0.00000009    0.00000004    0.00000000
     atom  136 type  2   force =     0.00000011   -0.00000023    0.00000029
     atom  137 type  1   force =     0.00000001   -0.00000002    0.00000004
     atom  138 type  1   force =    -0.00000005   -0.00000003    0.00000003
     atom  139 type  2   force =    -0.00000073    0.00000007    0.00000046
     atom  140 type  1   force =    -0.00000008    0.00000004   -0.00000004
     atom  141 type  1   force =    -0.00000018    0.00000000    0.00000013
     atom  142 type  2   force =    -0.00000007   -0.00000001   -0.00000029
     atom  143 type  1   force =    -0.00000000   -0.00000003   -0.00000005
     atom  144 type  1   force =    -0.00000003    0.00000004   -0.00000003
     atom  145 type  2   force =     0.00000020   -0.00000040   -0.00000046
     atom  146 type  1   force =     0.00000013   -0.00000022   -0.00000005
     atom  147 type  1   force =    -0.00000001    0.00000006   -0.00000022
     atom  148 type  2   force =     0.00000005    0.00000038    0.00000003
     atom  149 type  1   force =     0.00000011   -0.00000002    0.00000001
     atom  150 type  1   force =     0.00000000    0.00000016    0.00000000
     atom  151 type  2   force =     0.00000050    0.00000084   -0.00000001
     atom  152 type  1   force =     0.00000001    0.00000023   -0.00000018
     atom  153 type  1   force =     0.00000025    0.00000011    0.00000012
     atom  154 type  2   force =    -0.00000040   -0.00000007   -0.00000011
     atom  155 type  1   force =    -0.00000011   -0.00000005   -0.00000007
     atom  156 type  1   force =    -0.00000006    0.00000001    0.00000006
     atom  157 type  2   force =     0.00000028   -0.00000052    0.00000021
     atom  158 type  1   force =     0.00000009   -0.00000016   -0.00000006
     atom  159 type  1   force =     0.00000005   -0.00000005    0.00000017
     atom  160 type  2   force =     0.00000044   -0.00000013   -0.00000003
     atom  161 type  1   force =     0.00000006    0.00000002    0.00000002
     atom  162 type  1   force =     0.00000004   -0.00000004   -0.00000003
     atom  163 type  2   force =    -0.00000025    0.00000012   -0.00000063
     atom  164 type  1   force =    -0.00000022   -0.00000005   -0.00000010
     atom  165 type  1   force =     0.00000006    0.00000006   -0.00000018
     atom  166 type  2   force =     0.00000065    0.00000008    0.00000026
     atom  167 type  1   force =     0.00000014    0.00000009    0.00000015
     atom  168 type  1   force =     0.00000011   -0.00000009   -0.00000007
     atom  169 type  2   force =     0.00000010    0.00000051    0.00000019
     atom  170 type  1   force =     0.00000008   -0.00000002    0.00000004
     atom  171 type  1   force =    -0.00000005    0.00000019    0.00000005
     atom  172 type  2   force =     0.00000063   -0.00000048    0.00000047
     atom  173 type  1   force =     0.00000009    0.00000007   -0.00000006
     atom  174 type  1   force =     0.00000011   -0.00000012    0.00000009
     atom  175 type  2   force =     0.00000042    0.00000029   -0.00000058
     atom  176 type  1   force =     0.00000007    0.00000029    0.00000003
     atom  177 type  1   force =     0.00000013   -0.00000003   -0.00000028
     atom  178 type  2   force =     0.00000000    0.00000038   -0.00000013
     atom  179 type  1   force =     0.00000008    0.00000006    0.00000001
     atom  180 type  1   force =    -0.00000009    0.00000011   -0.00000007
     atom  181 type  2   force =     0.00000098   -0.00000004   -0.00000027
     atom  182 type  1   force =    -0.00000000   -0.00000005   -0.00000012
     atom  183 type  1   force =     0.00000022   -0.00000001   -0.00000004
     atom  184 type  2   force =    -0.00000049    0.00000006   -0.00000045
     atom  185 type  1   force =    -0.00000011    0.00000013   -0.00000014
     atom  186 type  1   force =    -0.00000007   -0.00000013   -0.00000005
     atom  187 type  2   force =    -0.00000006    0.00000021    0.00000038
     atom  188 type  1   force =     0.00000007    0.00000014    0.00000010
     atom  189 type  1   force =    -0.00000012   -0.00000006    0.00000010
     atom  190 type  2   force =     0.00000120   -0.00000015   -0.00000003
     atom  191 type  1   force =     0.00000007    0.00000018    0.00000003
     atom  192 type  1   force =     0.00000030   -0.00000008   -0.00000002
     atom  193 type  2   force =    -0.00000042    0.00000023   -0.00000046
     atom  194 type  1   force =     0.00000009    0.00000002   -0.00000015
     atom  195 type  1   force =    -0.00000017    0.00000001   -0.00000007
     atom  196 type  2   force =    -0.00000031    0.00000035   -0.00000064
     atom  197 type  1   force =    -0.00000015    0.00000012   -0.00000021
     atom  198 type  1   force =     0.00000008    0.00000012    0.00000006
     atom  199 type  2   force =     0.00000028   -0.00000044   -0.00000013
     atom  200 type  1   force =     0.00000005    0.00000001    0.00000000
     atom  201 type  1   force =     0.00000003   -0.00000004   -0.00000003
     atom  202 type  2   force =    -0.00000013   -0.00000002   -0.00000026
     atom  203 type  1   force =     0.00000003    0.00000003   -0.00000008
     atom  204 type  1   force =    -0.00000003   -0.00000003   -0.00000001
     atom  205 type  2   force =     0.00000027   -0.00000073   -0.00000013
     atom  206 type  1   force =     0.00000016   -0.00000022   -0.00000003
     atom  207 type  1   force =    -0.00000016   -0.00000011    0.00000005
     atom  208 type  2   force =    -0.00000006   -0.00000052    0.00000071
     atom  209 type  1   force =    -0.00000016   -0.00000013    0.00000008
     atom  210 type  1   force =     0.00000017   -0.00000009    0.00000021
     atom  211 type  2   force =    -0.00000003   -0.00000007   -0.00000007
     atom  212 type  1   force =    -0.00000002    0.00000004    0.00000010
     atom  213 type  1   force =    -0.00000008   -0.00000010    0.00000001
     atom  214 type  2   force =     0.00000005    0.00000004   -0.00000004
     atom  215 type  1   force =    -0.00000003   -0.00000000    0.00000000
     atom  216 type  1   force =     0.00000000    0.00000000   -0.00000001
     atom  217 type  2   force =    -0.00000042   -0.00000038    0.00000024
     atom  218 type  1   force =    -0.00000016   -0.00000003   -0.00000002
     atom  219 type  1   force =     0.00000001   -0.00000006    0.00000011
     atom  220 type  2   force =     0.00000051    0.00000034   -0.00000021
     atom  221 type  1   force =     0.00000006    0.00000017   -0.00000005
     atom  222 type  1   force =     0.00000013   -0.00000015   -0.00000006
     atom  223 type  2   force =    -0.00000008   -0.00000014    0.00000036
     atom  224 type  1   force =    -0.00000001   -0.00000005    0.00000016
     atom  225 type  1   force =    -0.00000009    0.00000004   -0.00000008
     atom  226 type  2   force =     0.00000002   -0.00000030    0.00000073
     atom  227 type  1   force =     0.00000008   -0.00000000    0.00000017
     atom  228 type  1   force =    -0.00000008   -0.00000011    0.00000011

     Total force =     0.647501     Total SCF correction =     0.000006

     Writing output data file ./008.save/
 
     init_run     :     12.83s CPU      4.37s WALL (       1 calls)
     electrons    :    424.01s CPU    114.17s WALL (       1 calls)
     forces       :      7.47s CPU      2.19s WALL (       1 calls)

     Called by init_run:
     wfcinit      :      7.60s CPU      2.02s WALL (       1 calls)
     wfcinit:atom :      0.11s CPU      0.03s WALL (       1 calls)
     wfcinit:wfcr :      6.91s CPU      1.81s WALL (       1 calls)
     potinit      :      1.58s CPU      0.44s WALL (       1 calls)
     hinit0       :      1.03s CPU      0.28s WALL (       1 calls)

     Called by electrons:
     c_bands      :    313.82s CPU     81.64s WALL (      20 calls)
     sum_band     :     63.00s CPU     18.28s WALL (      20 calls)
     v_of_rho     :     18.55s CPU      4.98s WALL (      21 calls)
     v_h          :      2.16s CPU      0.57s WALL (      21 calls)
     v_xc         :     17.15s CPU      4.61s WALL (      22 calls)
     newd         :     16.94s CPU      6.20s WALL (      21 calls)
     PAW_pot      :      5.16s CPU      1.33s WALL (      21 calls)
     mix_rho      :      4.97s CPU      1.34s WALL (      20 calls)

     Called by c_bands:
     init_us_2    :      2.23s CPU      0.60s WALL (      41 calls)
     regterg      :    308.96s CPU     80.41s WALL (      20 calls)

     Called by sum_band:
     sum_band:wei :      0.00s CPU      0.00s WALL (      20 calls)
     sum_band:loo :     47.33s CPU     12.28s WALL (      20 calls)
     sum_band:buf :      0.00s CPU      0.00s WALL (      20 calls)
     sum_band:ini :      1.09s CPU      0.28s WALL (      20 calls)
     sum_band:cal :      4.27s CPU      1.08s WALL (      20 calls)
     sum_band:bec :      0.10s CPU      0.03s WALL (      20 calls)
     addusdens    :     13.04s CPU      5.29s WALL (      20 calls)
     addusd:skk   :      6.48s CPU      3.13s WALL (      40 calls)
     addusd:dgemm :      3.62s CPU      1.30s WALL (      40 calls)
     addusd:qvan2 :      2.00s CPU      0.51s WALL (      40 calls)

     Called by *egterg:
     rdiaghg      :     25.23s CPU      6.47s WALL (      78 calls)
     regterg:over :     10.79s CPU      2.73s WALL (      58 calls)
     regterg:upda :      6.57s CPU      1.70s WALL (      58 calls)
     regterg:last :     18.42s CPU      4.66s WALL (      49 calls)
     h_psi        :    228.07s CPU     59.44s WALL (      79 calls)
     s_psi        :     13.77s CPU      3.66s WALL (      79 calls)
     g_psi        :      0.45s CPU      0.12s WALL (      58 calls)

     Called by h_psi:
     h_psi:calbec :     13.20s CPU      3.34s WALL (      79 calls)
     vloc_psi     :    199.80s CPU     52.26s WALL (      79 calls)
     vloc_psi:tg_ :      3.15s CPU      0.81s WALL (      79 calls)
     add_vuspsi   :     14.11s CPU      3.59s WALL (      79 calls)

     General routines
     calbec       :     18.33s CPU      4.64s WALL (     103 calls)
     fft          :     17.25s CPU      4.70s WALL (     238 calls)
     ffts         :      0.84s CPU      0.23s WALL (      41 calls)
     fftw         :    178.99s CPU     47.05s WALL (    5192 calls)
     interpolate  :      2.32s CPU      0.63s WALL (      21 calls)
 
     Parallel routines
     fft_scatt_xy :     45.03s CPU     11.59s WALL (    5471 calls)
     fft_scatt_yz :     53.21s CPU     14.29s WALL (    5471 calls)
     fft_scatt_tg :     14.07s CPU      4.47s WALL (    5192 calls)

     PAW routines
     PAW_pot      :      5.16s CPU      1.33s WALL (      21 calls)
 
     PWSCF        :   7m26.35s CPU   2m 2.57s WALL

 
   This run was terminated on:   8:58: 2  26Jun2021            

=------------------------------------------------------------------------------=
   JOB DONE.
=------------------------------------------------------------------------------=
