
     Program PWSCF v.6.6 starts on 26Jun2021 at  9:18:54 

     This program is part of the open-source Quantum ESPRESSO suite
     for quantum simulation of materials; please cite
         "P. Giannozzi et al., J. Phys.:Condens. Matter 21 395502 (2009);
         "P. Giannozzi et al., J. Phys.:Condens. Matter 29 465901 (2017);
          URL http://www.quantum-espresso.org", 
     in publications or presentations arising from this work. More details at
     http://www.quantum-espresso.org/quote

     Parallel version (MPI & OpenMP), running on     192 processor cores
     Number of MPI processes:                48
     Threads/MPI process:                     4

     MPI processes distributed on     4 nodes
     R & G space division:  proc/nbgrp/npool/nimage =      48
     wavefunctions fft division:  Y-proc x Z-proc =       8      6
     wavefunctions fft division:  task group distribution
                                  #TG    x Z-proc =       8      6
     Fft bands division:     nmany     =       1
     Reading input from _008.in

     Current dimensions of program PWSCF are:
     Max number of different atomic species (ntypx) = 10
     Max number of k-points (npk) =  40000
     Max angular momentum in pseudopotentials (lmaxx) =  3
     file O.pbe-n-kjpaw_psl.0.1.UPF: wavefunction(s)  2P renormalized

     gamma-point specific algorithms are used

     Subspace diagonalization in iterative solution of the eigenvalue problem:
     one sub-group per band group will be used
     ELPA distributed-memory algorithm (size of sub-group:  2*  2 procs)

 
     Parallelization info
     --------------------
     sticks:   dense  smooth     PW     G-vecs:    dense   smooth      PW
     Min         904     452    110               144178    50988    6290
     Max         924     464    120               144714    51216    6480
     Sum       43981   21985   5497              6933065  2451559  306907
 


     bravais-lattice index     =            1
     lattice parameter (alat)  =      33.9244  a.u.
     unit-cell volume          =   39042.2753 (a.u.)^3
     number of atoms/cell      =          228
     number of atomic types    =            2
     number of electrons       =       608.00
     number of Kohn-Sham states=          304
     kinetic-energy cutoff     =      60.0000  Ry
     charge density cutoff     =     480.0000  Ry
     convergence threshold     =      1.0E-10
     mixing beta               =       0.7000
     number of iterations used =            8  plain     mixing
     Exchange-correlation= SLA PW PBX PBC
                           (   1   4   3   4   0   0   0)

     celldm(1)=  33.924363  celldm(2)=   0.000000  celldm(3)=   0.000000
     celldm(4)=   0.000000  celldm(5)=   0.000000  celldm(6)=   0.000000

     crystal axes: (cart. coord. in units of alat)
               a(1) = (   1.000000   0.000000   0.000000 )  
               a(2) = (   0.000000   1.000000   0.000000 )  
               a(3) = (   0.000000   0.000000   1.000000 )  

     reciprocal axes: (cart. coord. in units 2 pi/alat)
               b(1) = (  1.000000  0.000000  0.000000 )  
               b(2) = (  0.000000  1.000000  0.000000 )  
               b(3) = (  0.000000  0.000000  1.000000 )  


     PseudoPot. # 1 for H  read from file:
     ./H.pbe-rrkjus_psl.1.0.0.UPF
     MD5 check sum: f52b6d4d1c606e5624b1dc7b2218f220
     Pseudo is Ultrasoft, Zval =  1.0
     Generated using "atomic" code by A. Dal Corso v.5.1
     Using radial grid of  929 points,  2 beta functions with: 
                l(1) =   0
                l(2) =   0
     Q(r) pseudized with 0 coefficients 


     PseudoPot. # 2 for O  read from file:
     ./O.pbe-n-kjpaw_psl.0.1.UPF
     MD5 check sum: 0234752ac141de4415c5fc33072bef88
     Pseudo is Projector augmented-wave + core cor, Zval =  6.0
     Generated using "atomic" code by A. Dal Corso v.5.0.99 svn rev. 10869
     Shape of augmentation charge: BESSEL
     Using radial grid of 1095 points,  4 beta functions with: 
                l(1) =   0
                l(2) =   0
                l(3) =   1
                l(4) =   1
     Q(r) pseudized with 0 coefficients 


     atomic species   valence    mass     pseudopotential
        H              1.00     1.00000     H ( 1.00)
        O              6.00    16.00000     O ( 1.00)

     No symmetry found


                                    s                        frac. trans.

      isym =  1     identity                                     

 cryst.   s( 1) = (     1          0          0      )
                  (     0          1          0      )
                  (     0          0          1      )

 cart.    s( 1) = (  1.0000000  0.0000000  0.0000000 )
                  (  0.0000000  1.0000000  0.0000000 )
                  (  0.0000000  0.0000000  1.0000000 )


     point group C_1 (1)    
     there are  1 classes
     the character table:

       E    
A      1.00

     the symmetry operations in each class and the name of the first element:

     E        1
          identity                                               

   Cartesian axes

     site n.     atom                  positions (alat units)
         1           O   tau(   1) = (  -0.2013436   0.3069207   0.2097939  )
         2           H   tau(   2) = (  -0.1738648   0.2623574   0.2288447  )
         3           H   tau(   3) = (  -0.1903197   0.3137723   0.1556495  )
         4           O   tau(   4) = (   0.0689494   0.1962923   0.3103398  )
         5           H   tau(   5) = (   0.1057141   0.2154545   0.3474944  )
         6           H   tau(   6) = (   0.0956317   0.1669920   0.2712355  )
         7           O   tau(   7) = (  -0.3814572   0.0804278   0.1704668  )
         8           H   tau(   8) = (  -0.3759314   0.1289461   0.1973162  )
         9           H   tau(   9) = (  -0.3687678   0.0874465   0.1166566  )
        10           O   tau(  10) = (   0.2094352   0.1811965  -0.2485116  )
        11           H   tau(  11) = (   0.2599588   0.1822549  -0.2249877  )
        12           H   tau(  12) = (   0.1791321   0.1404211  -0.2256228  )
        13           O   tau(  13) = (   0.0887244  -0.1510673  -0.3942112  )
        14           H   tau(  14) = (   0.0397605  -0.1392747  -0.3703754  )
        15           H   tau(  15) = (   0.0908411  -0.2053788  -0.4063993  )
        16           O   tau(  16) = (  -0.1129857   0.1842602   0.0383924  )
        17           H   tau(  17) = (  -0.0987979   0.1854300  -0.0154846  )
        18           H   tau(  18) = (  -0.1519842   0.1452674   0.0464138  )
        19           O   tau(  19) = (   0.1901615   0.0255593   0.3698318  )
        20           H   tau(  20) = (   0.1987957   0.0031829   0.3195867  )
        21           H   tau(  21) = (   0.1882676   0.0810406   0.3654311  )
        22           O   tau(  22) = (   0.0666656   0.2863659  -0.0610561  )
        23           H   tau(  23) = (   0.0880559   0.2535004  -0.0215174  )
        24           H   tau(  24) = (   0.1073295   0.3167803  -0.0839505  )
        25           O   tau(  25) = (   0.0413759   0.0256150  -0.2359225  )
        26           H   tau(  26) = (   0.0885016   0.0331907  -0.2072516  )
        27           H   tau(  27) = (  -0.0007531   0.0506261  -0.2093906  )
        28           O   tau(  28) = (  -0.0049142   0.0627139   0.0615653  )
        29           H   tau(  29) = (  -0.0319196   0.0149086   0.0521513  )
        30           H   tau(  30) = (  -0.0418126   0.1031551   0.0717034  )
        31           O   tau(  31) = (  -0.0611754  -0.0666756  -0.1319452  )
        32           H   tau(  32) = (  -0.0066912  -0.0591722  -0.1231105  )
        33           H   tau(  33) = (  -0.0824655  -0.0213157  -0.1562767  )
        34           O   tau(  34) = (   0.0470577   0.0253365   0.2010484  )
        35           H   tau(  35) = (   0.0421000   0.0511832   0.1519730  )
        36           H   tau(  36) = (   0.0112957  -0.0172995   0.2032765  )
        37           O   tau(  37) = (  -0.1020455  -0.0664138   0.0173362  )
        38           H   tau(  38) = (  -0.1520399  -0.0462656   0.0313737  )
        39           H   tau(  39) = (  -0.0951549  -0.0622193  -0.0378053  )
        40           O   tau(  40) = (  -0.0368048   0.4114773   0.1544240  )
        41           H   tau(  41) = (  -0.0205448   0.3955459   0.2052819  )
        42           H   tau(  42) = (  -0.0057888   0.4546480   0.1377128  )
        43           O   tau(  43) = (  -0.1965642  -0.0301393   0.1969820  )
        44           H   tau(  44) = (  -0.2155537  -0.0180459   0.2479512  )
        45           H   tau(  45) = (  -0.1428431  -0.0445276   0.2001571  )
        46           O   tau(  46) = (  -0.4270065  -0.0411965  -0.0165207  )
        47           H   tau(  47) = (  -0.4258590  -0.0677841   0.0324320  )
        48           H   tau(  48) = (  -0.4332008  -0.0782565  -0.0576471  )
        49           O   tau(  49) = (  -0.1761096   0.1076114  -0.2718460  )
        50           H   tau(  50) = (  -0.2304490   0.1067201  -0.2840452  )
        51           H   tau(  51) = (  -0.1473997   0.1252139  -0.3162032  )
        52           O   tau(  52) = (  -0.1697037  -0.2267190   0.1466254  )
        53           H   tau(  53) = (  -0.2086074  -0.1926783   0.1258478  )
        54           H   tau(  54) = (  -0.1203498  -0.2145978   0.1237868  )
        55           O   tau(  55) = (  -0.1500234  -0.2118070  -0.3257509  )
        56           H   tau(  56) = (  -0.1567970  -0.2170265  -0.3807921  )
        57           H   tau(  57) = (  -0.1051092  -0.1805013  -0.3154568  )
        58           O   tau(  58) = (   0.2265363  -0.2172048   0.0269730  )
        59           H   tau(  59) = (   0.2648050  -0.2193438   0.0673585  )
        60           H   tau(  60) = (   0.1810261  -0.1912244   0.0458567  )
        61           O   tau(  61) = (   0.3723697   0.0180949   0.2074543  )
        62           H   tau(  62) = (   0.3301459   0.0219942   0.1713581  )
        63           H   tau(  63) = (   0.4173229   0.0433289   0.1862311  )
        64           O   tau(  64) = (  -0.0801593   0.2191867   0.2633812  )
        65           H   tau(  65) = (  -0.0252518   0.2228632   0.2719597  )
        66           H   tau(  66) = (  -0.1046803   0.1980749   0.3087244  )
        67           O   tau(  67) = (   0.1164650   0.2397972  -0.3413703  )
        68           H   tau(  68) = (   0.1491633   0.2321658  -0.2969017  )
        69           H   tau(  69) = (   0.1205314   0.1956796  -0.3751716  )
        70           O   tau(  70) = (  -0.0754356   0.0866667  -0.1603264  )
        71           H   tau(  71) = (  -0.0675869   0.1354078  -0.1345689  )
        72           H   tau(  72) = (  -0.1104234   0.0936854  -0.2030960  )
        73           O   tau(  73) = (  -0.0109247  -0.3019864   0.3012043  )
        74           H   tau(  74) = (  -0.0664617  -0.3060807   0.2999231  )
        75           H   tau(  75) = (   0.0077863  -0.3186809   0.3509481  )
        76           O   tau(  76) = (   0.2708211   0.1781328   0.1003910  )
        77           H   tau(  77) = (   0.2370087   0.2195209   0.0847382  )
        78           H   tau(  78) = (   0.3172226   0.1994118   0.1226170  )
        79           O   tau(  79) = (   0.2687600  -0.2380492  -0.1163146  )
        80           H   tau(  80) = (   0.2253108  -0.2586542  -0.1443672  )
        81           H   tau(  81) = (   0.2558924  -0.2342001  -0.0622649  )
        82           O   tau(  82) = (   0.2225813  -0.0713714  -0.0079256  )
        83           H   tau(  83) = (   0.1733946  -0.0587266  -0.0308088  )
        84           H   tau(  84) = (   0.2353933  -0.1243238  -0.0195343  )
        85           O   tau(  85) = (  -0.0409770  -0.1819886   0.0889160  )
        86           H   tau(  86) = (  -0.0589918  -0.1394029   0.0578888  )
        87           H   tau(  87) = (  -0.0143895  -0.2186642   0.0564962  )
        88           O   tau(  88) = (  -0.3136096   0.2869786  -0.1169552  )
        89           H   tau(  89) = (  -0.3691967   0.2839149  -0.1188770  )
        90           H   tau(  90) = (  -0.2924421   0.2712701  -0.1660361  )
        91           O   tau(  91) = (  -0.3060339   0.3122126   0.0319864  )
        92           H   tau(  92) = (  -0.3066745   0.2958913  -0.0212890  )
        93           H   tau(  93) = (  -0.2533824   0.3201225   0.0483634  )
        94           O   tau(  94) = (   0.3418995  -0.2292480   0.1309726  )
        95           H   tau(  95) = (   0.3264138  -0.1964661   0.1732520  )
        96           H   tau(  96) = (   0.3879668  -0.2572393   0.1451214  )
        97           O   tau(  97) = (   0.1664873   0.0631038  -0.1475702  )
        98           H   tau(  98) = (   0.2191834   0.0530771  -0.1624933  )
        99           H   tau(  99) = (   0.1652061   0.0811520  -0.0948852  )
       100           O   tau( 100) = (  -0.2047137   0.0713480   0.0875234  )
       101           H   tau( 101) = (  -0.2090809   0.0397081   0.1331451  )
       102           H   tau( 102) = (  -0.2556049   0.0851070   0.0695310  )
       103           O   tau( 103) = (  -0.2575824  -0.1414973  -0.0646713  )
       104           H   tau( 104) = (  -0.2650078  -0.1299109  -0.0106941  )
       105           H   tau( 105) = (  -0.2403253  -0.0957030  -0.0912812  )
       106           O   tau( 106) = (  -0.0577885  -0.0828131   0.2111308  )
       107           H   tau( 107) = (  -0.0530537  -0.1251203   0.1752016  )
       108           H   tau( 108) = (  -0.0472048  -0.1009782   0.2627128  )
       109           O   tau( 109) = (   0.2604601   0.0181506   0.1016722  )
       110           H   tau( 110) = (   0.2516032   0.0725178   0.0933166  )
       111           H   tau( 111) = (   0.2397382  -0.0108211   0.0588915  )
       112           O   tau( 112) = (   0.1183590   0.3992224   0.0563291  )
       113           H   tau( 113) = (   0.1279958   0.3891399   0.0024075  )
       114           H   tau( 114) = (   0.0898385   0.4467380   0.0615653  )
       115           O   tau( 115) = (   0.1407520   0.2423596   0.0680270  )
       116           H   tau( 116) = (   0.1033189   0.2203565   0.1028977  )
       117           H   tau( 117) = (   0.1284971   0.2958913   0.0589472  )
       118           O   tau( 118) = (  -0.1729178  -0.3211319   0.0245778  )
       119           H   tau( 119) = (  -0.1333567  -0.2909124  -0.0004334  )
       120           H   tau( 120) = (  -0.1626459  -0.3235717   0.0792792  )
       121           O   tau( 121) = (  -0.2664617  -0.1118850   0.0930381  )
       122           H   tau( 122) = (  -0.3192357  -0.1273151   0.1019508  )
       123           H   tau( 123) = (  -0.2520566  -0.0727473   0.1299699  )
       124           O   tau( 124) = (  -0.0373841  -0.3651381   0.1500791  )
       125           H   tau( 125) = (  -0.0318026  -0.3282175   0.1914115  )
       126           H   tau( 126) = (   0.0112400  -0.3707531   0.1235082  )
       127           O   tau( 127) = (   0.2208545  -0.0824621  -0.3695733  )
       128           H   tau( 128) = (   0.1729490  -0.1100969  -0.3762857  )
       129           H   tau( 129) = (   0.2266477  -0.0451515  -0.4105270  )
       130           O   tau( 130) = (   0.3203977   0.0499577  -0.1713391  )
       131           H   tau( 131) = (   0.3294775   0.0115831  -0.2106829  )
       132           H   tau( 132) = (   0.3173340   0.0251136  -0.1215619  )
       133           O   tau( 133) = (  -0.0665118   0.2252028  -0.1048619  )
       134           H   tau( 134) = (  -0.0838414   0.2520521  -0.1504779  )
       135           H   tau( 135) = (  -0.0169184   0.2452005  -0.0892591  )
       136           O   tau( 136) = (  -0.2210851   0.0200446   0.3542346  )
       137           H   tau( 137) = (  -0.2231183   0.0005871   0.4063737  )
       138           H   tau( 138) = (  -0.1679378   0.0268962   0.3390274  )
       139           O   tau( 139) = (  -0.1524911  -0.2665363   0.2946312  )
       140           H   tau( 140) = (  -0.1639717  -0.2538414   0.2416009  )
       141           H   tau( 141) = (  -0.1999621  -0.2702016   0.3235417  )
       142           O   tau( 142) = (  -0.1081729   0.0016288  -0.4346914  )
       143           H   tau( 143) = (  -0.1045633  -0.0281896  -0.4816054  )
       144           H   tau( 144) = (  -0.1375958   0.0479523  -0.4443449  )
       145           O   tau( 145) = (   0.3425680  -0.0587879  -0.2724365  )
       146           H   tau( 146) = (   0.3690831  -0.1075290  -0.2773162  )
       147           H   tau( 147) = (   0.3255782  -0.0417926  -0.3226872  )
       148           O   tau( 148) = (  -0.0241878   0.3104857  -0.2471190  )
       149           H   tau( 149) = (   0.0274499   0.2897638  -0.2492859  )
       150           H   tau( 150) = (  -0.0217424   0.3659670  -0.2425624  )
       151           O   tau( 151) = (   0.1761798   0.3737099  -0.0959603  )
       152           H   tau( 152) = (   0.1694953   0.4109759  -0.1368360  )
       153           H   tau( 153) = (   0.2237511   0.3841266  -0.0689550  )
       154           O   tau( 154) = (   0.0124098   0.1203676  -0.4028788  )
       155           H   tau( 155) = (  -0.0263826   0.0885049  -0.4270878  )
       156           H   tau( 156) = (  -0.0003131   0.1273864  -0.3491020  )
       157           O   tau( 157) = (   0.1257676  -0.2985550  -0.0768483  )
       158           H   tau( 158) = (   0.1462110  -0.3439650  -0.1017981  )
       159           H   tau( 159) = (   0.1411419  -0.2982709  -0.0233111  )
       160           O   tau( 160) = (   0.1117859  -0.3894920   0.0854623  )
       161           H   tau( 161) = (   0.1523942  -0.3638291   0.1137043  )
       162           H   tau( 162) = (   0.1326749  -0.4339661   0.0592257  )
       163           O   tau( 163) = (  -0.1118494  -0.3382721  -0.1349254  )
       164           H   tau( 164) = (  -0.1660216  -0.3479757  -0.1435651  )
       165           H   tau( 165) = (  -0.0930604  -0.3024822  -0.1732498  )
       166           O   tau( 166) = (  -0.0629802   0.0573663   0.3381361  )
       167           H   tau( 167) = (  -0.0280816   0.0818204   0.3739539  )
       168           H   tau( 168) = (  -0.0337021   0.0290686   0.3000902  )
       169           O   tau( 169) = (  -0.3040564  -0.2817602  -0.0419608  )
       170           H   tau( 170) = (  -0.2567023  -0.3012066  -0.0200022  )
       171           H   tau( 171) = (  -0.3029534  -0.2260673  -0.0421223  )
       172           O   tau( 172) = (   0.1978487  -0.1180515  -0.2063826  )
       173           H   tau( 173) = (   0.2218572  -0.0876816  -0.2464505  )
       174           H   tau( 174) = (   0.2361731  -0.1503654  -0.1821123  )
       175           O   tau( 175) = (  -0.1247337   0.2253699  -0.3570733  )
       176           H   tau( 176) = (  -0.1127462   0.2767848  -0.3392870  )
       177           H   tau( 177) = (  -0.0990541   0.2160116  -0.4056139  )
       178           O   tau( 178) = (  -0.2379635   0.0160116  -0.1048006  )
       179           H   tau( 179) = (  -0.1872672   0.0390397  -0.1034915  )
       180           H   tau( 180) = (  -0.2740263   0.0517402  -0.1276894  )
       181           O   tau( 181) = (  -0.0220878  -0.2846012  -0.0203197  )
       182           H   tau( 182) = (  -0.0549922  -0.3051894  -0.0602707  )
       183           H   tau( 183) = (   0.0307921  -0.2847850  -0.0378832  )
       184           O   tau( 184) = (  -0.3441578   0.0987545   0.0259147  )
       185           H   tau( 185) = (  -0.3685896   0.1373017  -0.0060038  )
       186           H   tau( 186) = (  -0.3636096   0.0483422   0.0122672  )
       187           O   tau( 187) = (   0.1369084   0.1025980  -0.0090397  )
       188           H   tau( 188) = (   0.1544552   0.1482197   0.0176705  )
       189           H   tau( 189) = (   0.0921223   0.0819318   0.0168906  )
       190           O   tau( 190) = (  -0.0430827  -0.2077239  -0.1963391  )
       191           H   tau( 191) = (  -0.0481796  -0.1541644  -0.1819062  )
       192           H   tau( 192) = (   0.0108500  -0.2217001  -0.1971190  )
       193           O   tau( 193) = (   0.2028621  -0.0373585   0.2387043  )
       194           H   tau( 194) = (   0.2384013  -0.0292424   0.1965363  )
       195           H   tau( 195) = (   0.1505559  -0.0337934   0.2198206  )
       196           O   tau( 196) = (  -0.0233746  -0.0819998  -0.3269931  )
       197           H   tau( 197) = (  -0.0520232  -0.0526214  -0.3646602  )
       198           H   tau( 198) = (   0.0064494  -0.0473407  -0.2952028  )
       199           O   tau( 199) = (  -0.1554434   0.3442424   0.0644619  )
       200           H   tau( 200) = (  -0.1169630   0.3728743   0.0927596  )
       201           H   tau( 201) = (  -0.1345042   0.2948329   0.0494218  )
       202           O   tau( 202) = (   0.1799677   0.1265508   0.2455559  )
       203           H   tau( 203) = (   0.2049231   0.1396413   0.1975390  )
       204           H   tau( 204) = (   0.1546223   0.0771970   0.2404869  )
       205           O   tau( 205) = (   0.1089450  -0.2088547   0.2472270  )
       206           H   tau( 206) = (   0.1439828  -0.2518917   0.2423808  )
       207           H   tau( 207) = (   0.0584213  -0.2275490   0.2613202  )
       208           O   tau( 208) = (   0.3586664  -0.0204579  -0.0407353  )
       209           H   tau( 209) = (   0.3102039  -0.0433746  -0.0256451  )
       210           H   tau( 210) = (   0.3976036  -0.0328186  -0.0028844  )
       211           O   tau( 211) = (   0.1025947  -0.1104701   0.3765163  )
       212           H   tau( 212) = (   0.1211442  -0.1416533   0.3342926  )
       213           H   tau( 213) = (   0.1246535  -0.0594452   0.3730626  )
       214           O   tau( 214) = (  -0.2644842  -0.2155281  -0.2203142  )
       215           H   tau( 215) = (  -0.2188291  -0.2165865  -0.2522103  )
       216           H   tau( 216) = (  -0.2500234  -0.2051281  -0.1675345  )
       217           O   tau( 217) = (   0.1077195  -0.1260283   0.1104735  )
       218           H   tau( 218) = (   0.0533523  -0.1287745   0.0986642  )
       219           H   tau( 219) = (   0.1163536  -0.1434804   0.1626682  )
       220           O   tau( 220) = (   0.0981941  -0.0775992  -0.1006785  )
       221           H   tau( 221) = (   0.1115074  -0.0264795  -0.1183590  )
       222           H   tau( 222) = (   0.1293327  -0.1152106  -0.1275111  )
       223           O   tau( 223) = (   0.0045945   0.1984648   0.1214472  )
       224           H   tau( 224) = (  -0.0145677   0.1891065   0.1729178  )
       225           H   tau( 225) = (  -0.0381974   0.2085472   0.0872449  )
       226           O   tau( 226) = (  -0.0663837  -0.1361330   0.3574655  )
       227           H   tau( 227) = (  -0.0329779  -0.1273429   0.4011932  )
       228           H   tau( 228) = (  -0.0970544  -0.1817658   0.3664338  )

   Crystallographic axes

     site n.     atom                  positions (cryst. coord.)
         1           O   tau(   1) = ( -0.2013436  0.3069207  0.2097939  )
         2           H   tau(   2) = ( -0.1738648  0.2623574  0.2288447  )
         3           H   tau(   3) = ( -0.1903197  0.3137723  0.1556495  )
         4           O   tau(   4) = (  0.0689494  0.1962923  0.3103398  )
         5           H   tau(   5) = (  0.1057141  0.2154545  0.3474944  )
         6           H   tau(   6) = (  0.0956317  0.1669920  0.2712355  )
         7           O   tau(   7) = ( -0.3814572  0.0804278  0.1704668  )
         8           H   tau(   8) = ( -0.3759314  0.1289461  0.1973162  )
         9           H   tau(   9) = ( -0.3687678  0.0874465  0.1166566  )
        10           O   tau(  10) = (  0.2094352  0.1811965 -0.2485116  )
        11           H   tau(  11) = (  0.2599588  0.1822549 -0.2249877  )
        12           H   tau(  12) = (  0.1791321  0.1404211 -0.2256228  )
        13           O   tau(  13) = (  0.0887244 -0.1510673 -0.3942112  )
        14           H   tau(  14) = (  0.0397605 -0.1392747 -0.3703754  )
        15           H   tau(  15) = (  0.0908411 -0.2053788 -0.4063993  )
        16           O   tau(  16) = ( -0.1129857  0.1842602  0.0383924  )
        17           H   tau(  17) = ( -0.0987979  0.1854300 -0.0154846  )
        18           H   tau(  18) = ( -0.1519842  0.1452674  0.0464138  )
        19           O   tau(  19) = (  0.1901615  0.0255593  0.3698318  )
        20           H   tau(  20) = (  0.1987957  0.0031829  0.3195867  )
        21           H   tau(  21) = (  0.1882676  0.0810406  0.3654311  )
        22           O   tau(  22) = (  0.0666656  0.2863659 -0.0610561  )
        23           H   tau(  23) = (  0.0880559  0.2535004 -0.0215174  )
        24           H   tau(  24) = (  0.1073295  0.3167803 -0.0839505  )
        25           O   tau(  25) = (  0.0413759  0.0256150 -0.2359225  )
        26           H   tau(  26) = (  0.0885016  0.0331907 -0.2072516  )
        27           H   tau(  27) = ( -0.0007531  0.0506261 -0.2093906  )
        28           O   tau(  28) = ( -0.0049142  0.0627139  0.0615653  )
        29           H   tau(  29) = ( -0.0319196  0.0149086  0.0521513  )
        30           H   tau(  30) = ( -0.0418126  0.1031551  0.0717034  )
        31           O   tau(  31) = ( -0.0611754 -0.0666756 -0.1319452  )
        32           H   tau(  32) = ( -0.0066912 -0.0591722 -0.1231105  )
        33           H   tau(  33) = ( -0.0824655 -0.0213157 -0.1562767  )
        34           O   tau(  34) = (  0.0470577  0.0253365  0.2010484  )
        35           H   tau(  35) = (  0.0421000  0.0511832  0.1519730  )
        36           H   tau(  36) = (  0.0112957 -0.0172995  0.2032765  )
        37           O   tau(  37) = ( -0.1020455 -0.0664138  0.0173362  )
        38           H   tau(  38) = ( -0.1520399 -0.0462656  0.0313737  )
        39           H   tau(  39) = ( -0.0951549 -0.0622193 -0.0378053  )
        40           O   tau(  40) = ( -0.0368048  0.4114773  0.1544240  )
        41           H   tau(  41) = ( -0.0205448  0.3955459  0.2052819  )
        42           H   tau(  42) = ( -0.0057888  0.4546480  0.1377128  )
        43           O   tau(  43) = ( -0.1965642 -0.0301393  0.1969820  )
        44           H   tau(  44) = ( -0.2155537 -0.0180459  0.2479512  )
        45           H   tau(  45) = ( -0.1428431 -0.0445276  0.2001571  )
        46           O   tau(  46) = ( -0.4270065 -0.0411965 -0.0165207  )
        47           H   tau(  47) = ( -0.4258590 -0.0677841  0.0324320  )
        48           H   tau(  48) = ( -0.4332008 -0.0782565 -0.0576471  )
        49           O   tau(  49) = ( -0.1761096  0.1076114 -0.2718460  )
        50           H   tau(  50) = ( -0.2304490  0.1067201 -0.2840452  )
        51           H   tau(  51) = ( -0.1473997  0.1252139 -0.3162032  )
        52           O   tau(  52) = ( -0.1697037 -0.2267190  0.1466254  )
        53           H   tau(  53) = ( -0.2086074 -0.1926783  0.1258478  )
        54           H   tau(  54) = ( -0.1203498 -0.2145978  0.1237868  )
        55           O   tau(  55) = ( -0.1500234 -0.2118070 -0.3257509  )
        56           H   tau(  56) = ( -0.1567970 -0.2170265 -0.3807921  )
        57           H   tau(  57) = ( -0.1051092 -0.1805013 -0.3154568  )
        58           O   tau(  58) = (  0.2265363 -0.2172048  0.0269730  )
        59           H   tau(  59) = (  0.2648050 -0.2193438  0.0673585  )
        60           H   tau(  60) = (  0.1810261 -0.1912244  0.0458567  )
        61           O   tau(  61) = (  0.3723697  0.0180949  0.2074543  )
        62           H   tau(  62) = (  0.3301459  0.0219942  0.1713581  )
        63           H   tau(  63) = (  0.4173229  0.0433289  0.1862311  )
        64           O   tau(  64) = ( -0.0801593  0.2191867  0.2633812  )
        65           H   tau(  65) = ( -0.0252518  0.2228632  0.2719597  )
        66           H   tau(  66) = ( -0.1046803  0.1980749  0.3087244  )
        67           O   tau(  67) = (  0.1164650  0.2397972 -0.3413703  )
        68           H   tau(  68) = (  0.1491633  0.2321658 -0.2969017  )
        69           H   tau(  69) = (  0.1205314  0.1956796 -0.3751716  )
        70           O   tau(  70) = ( -0.0754356  0.0866667 -0.1603264  )
        71           H   tau(  71) = ( -0.0675869  0.1354078 -0.1345689  )
        72           H   tau(  72) = ( -0.1104234  0.0936854 -0.2030960  )
        73           O   tau(  73) = ( -0.0109247 -0.3019864  0.3012043  )
        74           H   tau(  74) = ( -0.0664617 -0.3060807  0.2999231  )
        75           H   tau(  75) = (  0.0077863 -0.3186809  0.3509481  )
        76           O   tau(  76) = (  0.2708211  0.1781328  0.1003910  )
        77           H   tau(  77) = (  0.2370087  0.2195209  0.0847382  )
        78           H   tau(  78) = (  0.3172226  0.1994118  0.1226170  )
        79           O   tau(  79) = (  0.2687600 -0.2380492 -0.1163146  )
        80           H   tau(  80) = (  0.2253108 -0.2586542 -0.1443672  )
        81           H   tau(  81) = (  0.2558924 -0.2342001 -0.0622649  )
        82           O   tau(  82) = (  0.2225813 -0.0713714 -0.0079256  )
        83           H   tau(  83) = (  0.1733946 -0.0587266 -0.0308088  )
        84           H   tau(  84) = (  0.2353933 -0.1243238 -0.0195343  )
        85           O   tau(  85) = ( -0.0409770 -0.1819886  0.0889160  )
        86           H   tau(  86) = ( -0.0589918 -0.1394029  0.0578888  )
        87           H   tau(  87) = ( -0.0143895 -0.2186642  0.0564962  )
        88           O   tau(  88) = ( -0.3136096  0.2869786 -0.1169552  )
        89           H   tau(  89) = ( -0.3691967  0.2839149 -0.1188770  )
        90           H   tau(  90) = ( -0.2924421  0.2712701 -0.1660361  )
        91           O   tau(  91) = ( -0.3060339  0.3122126  0.0319864  )
        92           H   tau(  92) = ( -0.3066745  0.2958913 -0.0212890  )
        93           H   tau(  93) = ( -0.2533824  0.3201225  0.0483634  )
        94           O   tau(  94) = (  0.3418995 -0.2292480  0.1309726  )
        95           H   tau(  95) = (  0.3264138 -0.1964661  0.1732520  )
        96           H   tau(  96) = (  0.3879668 -0.2572393  0.1451214  )
        97           O   tau(  97) = (  0.1664873  0.0631038 -0.1475702  )
        98           H   tau(  98) = (  0.2191834  0.0530771 -0.1624933  )
        99           H   tau(  99) = (  0.1652061  0.0811520 -0.0948852  )
       100           O   tau( 100) = ( -0.2047137  0.0713480  0.0875234  )
       101           H   tau( 101) = ( -0.2090809  0.0397081  0.1331451  )
       102           H   tau( 102) = ( -0.2556049  0.0851070  0.0695310  )
       103           O   tau( 103) = ( -0.2575824 -0.1414973 -0.0646713  )
       104           H   tau( 104) = ( -0.2650078 -0.1299109 -0.0106941  )
       105           H   tau( 105) = ( -0.2403253 -0.0957030 -0.0912812  )
       106           O   tau( 106) = ( -0.0577885 -0.0828131  0.2111308  )
       107           H   tau( 107) = ( -0.0530537 -0.1251203  0.1752016  )
       108           H   tau( 108) = ( -0.0472048 -0.1009782  0.2627128  )
       109           O   tau( 109) = (  0.2604601  0.0181506  0.1016722  )
       110           H   tau( 110) = (  0.2516032  0.0725178  0.0933166  )
       111           H   tau( 111) = (  0.2397382 -0.0108211  0.0588915  )
       112           O   tau( 112) = (  0.1183590  0.3992224  0.0563291  )
       113           H   tau( 113) = (  0.1279958  0.3891399  0.0024075  )
       114           H   tau( 114) = (  0.0898385  0.4467380  0.0615653  )
       115           O   tau( 115) = (  0.1407520  0.2423596  0.0680270  )
       116           H   tau( 116) = (  0.1033189  0.2203565  0.1028977  )
       117           H   tau( 117) = (  0.1284971  0.2958913  0.0589472  )
       118           O   tau( 118) = ( -0.1729178 -0.3211319  0.0245778  )
       119           H   tau( 119) = ( -0.1333567 -0.2909124 -0.0004334  )
       120           H   tau( 120) = ( -0.1626459 -0.3235717  0.0792792  )
       121           O   tau( 121) = ( -0.2664617 -0.1118850  0.0930381  )
       122           H   tau( 122) = ( -0.3192357 -0.1273151  0.1019508  )
       123           H   tau( 123) = ( -0.2520566 -0.0727473  0.1299699  )
       124           O   tau( 124) = ( -0.0373841 -0.3651381  0.1500791  )
       125           H   tau( 125) = ( -0.0318026 -0.3282175  0.1914115  )
       126           H   tau( 126) = (  0.0112400 -0.3707531  0.1235082  )
       127           O   tau( 127) = (  0.2208545 -0.0824621 -0.3695733  )
       128           H   tau( 128) = (  0.1729490 -0.1100969 -0.3762857  )
       129           H   tau( 129) = (  0.2266477 -0.0451515 -0.4105270  )
       130           O   tau( 130) = (  0.3203977  0.0499577 -0.1713391  )
       131           H   tau( 131) = (  0.3294775  0.0115831 -0.2106829  )
       132           H   tau( 132) = (  0.3173340  0.0251136 -0.1215619  )
       133           O   tau( 133) = ( -0.0665118  0.2252028 -0.1048619  )
       134           H   tau( 134) = ( -0.0838414  0.2520521 -0.1504779  )
       135           H   tau( 135) = ( -0.0169184  0.2452005 -0.0892591  )
       136           O   tau( 136) = ( -0.2210851  0.0200446  0.3542346  )
       137           H   tau( 137) = ( -0.2231183  0.0005871  0.4063737  )
       138           H   tau( 138) = ( -0.1679378  0.0268962  0.3390274  )
       139           O   tau( 139) = ( -0.1524911 -0.2665363  0.2946312  )
       140           H   tau( 140) = ( -0.1639717 -0.2538414  0.2416009  )
       141           H   tau( 141) = ( -0.1999621 -0.2702016  0.3235417  )
       142           O   tau( 142) = ( -0.1081729  0.0016288 -0.4346914  )
       143           H   tau( 143) = ( -0.1045633 -0.0281896 -0.4816054  )
       144           H   tau( 144) = ( -0.1375958  0.0479523 -0.4443449  )
       145           O   tau( 145) = (  0.3425680 -0.0587879 -0.2724365  )
       146           H   tau( 146) = (  0.3690831 -0.1075290 -0.2773162  )
       147           H   tau( 147) = (  0.3255782 -0.0417926 -0.3226872  )
       148           O   tau( 148) = ( -0.0241878  0.3104857 -0.2471190  )
       149           H   tau( 149) = (  0.0274499  0.2897638 -0.2492859  )
       150           H   tau( 150) = ( -0.0217424  0.3659670 -0.2425624  )
       151           O   tau( 151) = (  0.1761798  0.3737099 -0.0959603  )
       152           H   tau( 152) = (  0.1694953  0.4109759 -0.1368360  )
       153           H   tau( 153) = (  0.2237511  0.3841266 -0.0689550  )
       154           O   tau( 154) = (  0.0124098  0.1203676 -0.4028788  )
       155           H   tau( 155) = ( -0.0263826  0.0885049 -0.4270878  )
       156           H   tau( 156) = ( -0.0003131  0.1273864 -0.3491020  )
       157           O   tau( 157) = (  0.1257676 -0.2985550 -0.0768483  )
       158           H   tau( 158) = (  0.1462110 -0.3439650 -0.1017981  )
       159           H   tau( 159) = (  0.1411419 -0.2982709 -0.0233111  )
       160           O   tau( 160) = (  0.1117859 -0.3894920  0.0854623  )
       161           H   tau( 161) = (  0.1523942 -0.3638291  0.1137043  )
       162           H   tau( 162) = (  0.1326749 -0.4339661  0.0592257  )
       163           O   tau( 163) = ( -0.1118494 -0.3382721 -0.1349254  )
       164           H   tau( 164) = ( -0.1660216 -0.3479757 -0.1435651  )
       165           H   tau( 165) = ( -0.0930604 -0.3024822 -0.1732498  )
       166           O   tau( 166) = ( -0.0629802  0.0573663  0.3381361  )
       167           H   tau( 167) = ( -0.0280816  0.0818204  0.3739539  )
       168           H   tau( 168) = ( -0.0337021  0.0290686  0.3000902  )
       169           O   tau( 169) = ( -0.3040564 -0.2817602 -0.0419608  )
       170           H   tau( 170) = ( -0.2567023 -0.3012066 -0.0200022  )
       171           H   tau( 171) = ( -0.3029534 -0.2260673 -0.0421223  )
       172           O   tau( 172) = (  0.1978487 -0.1180515 -0.2063826  )
       173           H   tau( 173) = (  0.2218572 -0.0876816 -0.2464505  )
       174           H   tau( 174) = (  0.2361731 -0.1503654 -0.1821123  )
       175           O   tau( 175) = ( -0.1247337  0.2253699 -0.3570733  )
       176           H   tau( 176) = ( -0.1127462  0.2767848 -0.3392870  )
       177           H   tau( 177) = ( -0.0990541  0.2160116 -0.4056139  )
       178           O   tau( 178) = ( -0.2379635  0.0160116 -0.1048006  )
       179           H   tau( 179) = ( -0.1872672  0.0390397 -0.1034915  )
       180           H   tau( 180) = ( -0.2740263  0.0517402 -0.1276894  )
       181           O   tau( 181) = ( -0.0220878 -0.2846012 -0.0203197  )
       182           H   tau( 182) = ( -0.0549922 -0.3051894 -0.0602707  )
       183           H   tau( 183) = (  0.0307921 -0.2847850 -0.0378832  )
       184           O   tau( 184) = ( -0.3441578  0.0987545  0.0259147  )
       185           H   tau( 185) = ( -0.3685896  0.1373017 -0.0060038  )
       186           H   tau( 186) = ( -0.3636096  0.0483422  0.0122672  )
       187           O   tau( 187) = (  0.1369084  0.1025980 -0.0090397  )
       188           H   tau( 188) = (  0.1544552  0.1482197  0.0176705  )
       189           H   tau( 189) = (  0.0921223  0.0819318  0.0168906  )
       190           O   tau( 190) = ( -0.0430827 -0.2077239 -0.1963391  )
       191           H   tau( 191) = ( -0.0481796 -0.1541644 -0.1819062  )
       192           H   tau( 192) = (  0.0108500 -0.2217001 -0.1971190  )
       193           O   tau( 193) = (  0.2028621 -0.0373585  0.2387043  )
       194           H   tau( 194) = (  0.2384013 -0.0292424  0.1965363  )
       195           H   tau( 195) = (  0.1505559 -0.0337934  0.2198206  )
       196           O   tau( 196) = ( -0.0233746 -0.0819998 -0.3269931  )
       197           H   tau( 197) = ( -0.0520232 -0.0526214 -0.3646602  )
       198           H   tau( 198) = (  0.0064494 -0.0473407 -0.2952028  )
       199           O   tau( 199) = ( -0.1554434  0.3442424  0.0644619  )
       200           H   tau( 200) = ( -0.1169630  0.3728743  0.0927596  )
       201           H   tau( 201) = ( -0.1345042  0.2948329  0.0494218  )
       202           O   tau( 202) = (  0.1799677  0.1265508  0.2455559  )
       203           H   tau( 203) = (  0.2049231  0.1396413  0.1975390  )
       204           H   tau( 204) = (  0.1546223  0.0771970  0.2404869  )
       205           O   tau( 205) = (  0.1089450 -0.2088547  0.2472270  )
       206           H   tau( 206) = (  0.1439828 -0.2518917  0.2423808  )
       207           H   tau( 207) = (  0.0584213 -0.2275490  0.2613202  )
       208           O   tau( 208) = (  0.3586664 -0.0204579 -0.0407353  )
       209           H   tau( 209) = (  0.3102039 -0.0433746 -0.0256451  )
       210           H   tau( 210) = (  0.3976036 -0.0328186 -0.0028844  )
       211           O   tau( 211) = (  0.1025947 -0.1104701  0.3765163  )
       212           H   tau( 212) = (  0.1211442 -0.1416533  0.3342926  )
       213           H   tau( 213) = (  0.1246535 -0.0594452  0.3730626  )
       214           O   tau( 214) = ( -0.2644842 -0.2155281 -0.2203142  )
       215           H   tau( 215) = ( -0.2188291 -0.2165865 -0.2522103  )
       216           H   tau( 216) = ( -0.2500234 -0.2051281 -0.1675345  )
       217           O   tau( 217) = (  0.1077195 -0.1260283  0.1104735  )
       218           H   tau( 218) = (  0.0533523 -0.1287745  0.0986642  )
       219           H   tau( 219) = (  0.1163536 -0.1434804  0.1626682  )
       220           O   tau( 220) = (  0.0981941 -0.0775992 -0.1006785  )
       221           H   tau( 221) = (  0.1115074 -0.0264795 -0.1183590  )
       222           H   tau( 222) = (  0.1293327 -0.1152106 -0.1275111  )
       223           O   tau( 223) = (  0.0045945  0.1984648  0.1214472  )
       224           H   tau( 224) = ( -0.0145677  0.1891065  0.1729178  )
       225           H   tau( 225) = ( -0.0381974  0.2085472  0.0872449  )
       226           O   tau( 226) = ( -0.0663837 -0.1361330  0.3574655  )
       227           H   tau( 227) = ( -0.0329779 -0.1273429  0.4011932  )
       228           H   tau( 228) = ( -0.0970544 -0.1817658  0.3664338  )

     number of k points=     1
                       cart. coord. in units 2pi/alat
        k(    1) = (   0.0000000   0.0000000   0.0000000), wk =   2.0000000

                       cryst. coord.
        k(    1) = (   0.0000000   0.0000000   0.0000000), wk =   2.0000000

     Dense  grid:  3466533 G-vectors     FFT dimensions: ( 240, 240, 240)

     Smooth grid:  1225780 G-vectors     FFT dimensions: ( 180, 180, 180)

     Dynamical RAM for                 wfc:      14.80 MB

     Dynamical RAM for     wfc (w. buffer):      14.80 MB

     Dynamical RAM for           str. fact:       2.21 MB

     Dynamical RAM for           local pot:       0.00 MB

     Dynamical RAM for          nlocal pot:      44.41 MB

     Dynamical RAM for                qrad:       1.00 MB

     Dynamical RAM for          rho,v,vnew:       9.90 MB

     Dynamical RAM for               rhoin:       3.30 MB

     Dynamical RAM for            rho*nmix:      17.66 MB

     Dynamical RAM for           G-vectors:       4.33 MB

     Dynamical RAM for          h,s,v(r/c):       2.12 MB

     Dynamical RAM for          <psi|beta>:       2.12 MB

     Dynamical RAM for                 psi:      29.60 MB

     Dynamical RAM for                hpsi:      29.60 MB

     Dynamical RAM for                spsi:      29.60 MB

     Dynamical RAM for      wfcinit/wfcrot:      49.17 MB

     Dynamical RAM for           addusdens:     215.27 MB

     Dynamical RAM for          addusforce:     549.33 MB

     Estimated static dynamical RAM per process >     111.92 MB

     Estimated max dynamical RAM per process >     661.25 MB

     Estimated total dynamical RAM >      31.00 GB

     Initial potential from superposition of free atoms

     starting charge  607.99844, renormalised to  608.00000

     negative rho (up, down):  1.239E-03 0.000E+00
     Starting wfcs are  456 randomized atomic wfcs
     Checking if some PAW data can be deallocated... 

     total cpu time spent up to now is        3.9 secs

     Self-consistent Calculation

     iteration #  1     ecut=    60.00 Ry     beta= 0.70
     Davidson diagonalization with overlap
     ethr =  1.00E-02,  avg # of iterations =  2.0

     negative rho (up, down):  3.104E-03 0.000E+00

     total cpu time spent up to now is        7.0 secs

     total energy              =   -3335.37025668 Ry
     estimated scf accuracy    <      28.93640076 Ry

     iteration #  2     ecut=    60.00 Ry     beta= 0.70
     Davidson diagonalization with overlap
     ethr =  4.76E-03,  avg # of iterations =  3.0

     negative rho (up, down):  3.008E-03 0.000E+00

     total cpu time spent up to now is       10.7 secs

     total energy              =   -3344.24978262 Ry
     estimated scf accuracy    <      23.07203244 Ry

     iteration #  3     ecut=    60.00 Ry     beta= 0.70
     Davidson diagonalization with overlap
     ethr =  3.79E-03,  avg # of iterations =  2.0

     negative rho (up, down):  2.759E-03 0.000E+00

     total cpu time spent up to now is       13.8 secs

     total energy              =   -3347.52194160 Ry
     estimated scf accuracy    <       0.84439054 Ry

     iteration #  4     ecut=    60.00 Ry     beta= 0.70
     Davidson diagonalization with overlap
     ethr =  1.39E-04,  avg # of iterations =  4.0

     negative rho (up, down):  3.431E-03 0.000E+00

     total cpu time spent up to now is       18.0 secs

     total energy              =   -3348.26103854 Ry
     estimated scf accuracy    <       1.03818171 Ry

     iteration #  5     ecut=    60.00 Ry     beta= 0.70
     Davidson diagonalization with overlap
     ethr =  1.39E-04,  avg # of iterations =  2.0

     negative rho (up, down):  3.585E-03 0.000E+00

     total cpu time spent up to now is       20.7 secs

     total energy              =   -3348.28616629 Ry
     estimated scf accuracy    <       0.23830205 Ry

     iteration #  6     ecut=    60.00 Ry     beta= 0.70
     Davidson diagonalization with overlap
     ethr =  3.92E-05,  avg # of iterations =  2.0

     negative rho (up, down):  3.653E-03 0.000E+00

     total cpu time spent up to now is       23.3 secs

     total energy              =   -3348.27465405 Ry
     estimated scf accuracy    <       0.10513774 Ry

     iteration #  7     ecut=    60.00 Ry     beta= 0.70
     Davidson diagonalization with overlap
     ethr =  1.73E-05,  avg # of iterations =  2.0

     negative rho (up, down):  3.713E-03 0.000E+00

     total cpu time spent up to now is       25.9 secs

     total energy              =   -3348.26871146 Ry
     estimated scf accuracy    <       0.03399516 Ry

     iteration #  8     ecut=    60.00 Ry     beta= 0.70
     Davidson diagonalization with overlap
     ethr =  5.59E-06,  avg # of iterations =  3.0

     negative rho (up, down):  3.680E-03 0.000E+00

     total cpu time spent up to now is       29.1 secs

     total energy              =   -3348.27716987 Ry
     estimated scf accuracy    <       0.00062854 Ry

     iteration #  9     ecut=    60.00 Ry     beta= 0.70
     Davidson diagonalization with overlap
     ethr =  1.03E-07,  avg # of iterations =  6.0

     negative rho (up, down):  3.644E-03 0.000E+00

     total cpu time spent up to now is       33.7 secs

     total energy              =   -3348.27818809 Ry
     estimated scf accuracy    <       0.00100527 Ry

     iteration # 10     ecut=    60.00 Ry     beta= 0.70
     Davidson diagonalization with overlap
     ethr =  1.03E-07,  avg # of iterations =  2.0

     negative rho (up, down):  3.603E-03 0.000E+00

     total cpu time spent up to now is       36.2 secs

     total energy              =   -3348.27774984 Ry
     estimated scf accuracy    <       0.00099243 Ry

     iteration # 11     ecut=    60.00 Ry     beta= 0.70
     Davidson diagonalization with overlap
     ethr =  1.03E-07,  avg # of iterations =  2.0

     negative rho (up, down):  3.594E-03 0.000E+00

     total cpu time spent up to now is       39.3 secs

     total energy              =   -3348.27786897 Ry
     estimated scf accuracy    <       0.00005177 Ry

     iteration # 12     ecut=    60.00 Ry     beta= 0.70
     Davidson diagonalization with overlap
     ethr =  8.51E-09,  avg # of iterations =  4.0

     negative rho (up, down):  3.596E-03 0.000E+00

     total cpu time spent up to now is       43.1 secs

     total energy              =   -3348.27789986 Ry
     estimated scf accuracy    <       0.00001415 Ry

     iteration # 13     ecut=    60.00 Ry     beta= 0.70
     Davidson diagonalization with overlap
     ethr =  2.33E-09,  avg # of iterations =  2.0

     negative rho (up, down):  3.599E-03 0.000E+00

     total cpu time spent up to now is       45.6 secs

     total energy              =   -3348.27789688 Ry
     estimated scf accuracy    <       0.00000891 Ry

     iteration # 14     ecut=    60.00 Ry     beta= 0.70
     Davidson diagonalization with overlap
     ethr =  1.47E-09,  avg # of iterations =  2.0

     negative rho (up, down):  3.599E-03 0.000E+00

     total cpu time spent up to now is       48.4 secs

     total energy              =   -3348.27789742 Ry
     estimated scf accuracy    <       0.00000087 Ry

     iteration # 15     ecut=    60.00 Ry     beta= 0.70
     Davidson diagonalization with overlap
     ethr =  1.42E-10,  avg # of iterations =  3.0

     negative rho (up, down):  3.599E-03 0.000E+00

     total cpu time spent up to now is       51.8 secs

     total energy              =   -3348.27789777 Ry
     estimated scf accuracy    <       0.00000005 Ry

     iteration # 16     ecut=    60.00 Ry     beta= 0.70
     Davidson diagonalization with overlap
     ethr =  8.56E-12,  avg # of iterations =  6.0

     negative rho (up, down):  3.599E-03 0.000E+00

     total cpu time spent up to now is       55.5 secs

     total energy              =   -3348.27789777 Ry
     estimated scf accuracy    <       0.00000009 Ry

     iteration # 17     ecut=    60.00 Ry     beta= 0.70
     Davidson diagonalization with overlap
     ethr =  8.56E-12,  avg # of iterations =  3.0

     negative rho (up, down):  3.599E-03 0.000E+00

     total cpu time spent up to now is       58.5 secs

     total energy              =   -3348.27789778 Ry
     estimated scf accuracy    <       0.00000002 Ry

     iteration # 18     ecut=    60.00 Ry     beta= 0.70
     Davidson diagonalization with overlap
     ethr =  2.79E-12,  avg # of iterations =  3.0

     negative rho (up, down):  3.599E-03 0.000E+00

     total cpu time spent up to now is       61.8 secs

     total energy              =   -3348.27789778 Ry
     estimated scf accuracy    <          1.9E-10 Ry

     iteration # 19     ecut=    60.00 Ry     beta= 0.70
     Davidson diagonalization with overlap
     ethr =  1.00E-13,  avg # of iterations =  4.0

     negative rho (up, down):  3.599E-03 0.000E+00

     total cpu time spent up to now is       65.3 secs

     total energy              =   -3348.27789778 Ry
     estimated scf accuracy    <          3.2E-10 Ry

     iteration # 20     ecut=    60.00 Ry     beta= 0.70
     Davidson diagonalization with overlap
     ethr =  1.00E-13,  avg # of iterations =  2.0

     negative rho (up, down):  3.599E-03 0.000E+00

     total cpu time spent up to now is       68.3 secs

     total energy              =   -3348.27789778 Ry
     estimated scf accuracy    <          1.4E-10 Ry

     iteration # 21     ecut=    60.00 Ry     beta= 0.70
     Davidson diagonalization with overlap
     ethr =  1.00E-13,  avg # of iterations =  2.0

     negative rho (up, down):  3.599E-03 0.000E+00

     total cpu time spent up to now is       70.7 secs

     End of self-consistent calculation

          k = 0.0000 0.0000 0.0000 (153454 PWs)   bands (ev):

   -25.9711 -24.9878 -24.9174 -24.7038 -24.6587 -24.5454 -24.3674 -24.3499
   -24.3404 -24.3112 -24.2564 -24.1632 -24.1283 -24.1000 -24.0079 -23.9832
   -23.9660 -23.9585 -23.9127 -23.8743 -23.8345 -23.8227 -23.7920 -23.7631
   -23.7300 -23.6711 -23.6369 -23.6220 -23.6055 -23.5909 -23.5546 -23.5186
   -23.4989 -23.4806 -23.4703 -23.4315 -23.3863 -23.3423 -23.2964 -23.2786
   -23.2689 -23.2574 -23.2228 -23.1695 -23.0962 -23.0857 -23.0733 -22.9523
   -22.9325 -22.8847 -22.8825 -22.8367 -22.8164 -22.7328 -22.7179 -22.6930
   -22.6786 -22.6502 -22.6463 -22.6275 -22.6213 -22.5578 -22.4920 -22.4428
   -22.4107 -22.3644 -22.2729 -22.2555 -22.2196 -22.2069 -21.9789 -21.9450
   -21.2880 -21.1997 -21.1058 -20.7861 -14.0177 -13.1762 -13.1316 -12.9917
   -12.8968 -12.7254 -12.6619 -12.5380 -12.5022 -12.3937 -12.3702 -12.3260
   -12.2807 -12.2430 -12.2382 -12.1602 -12.1507 -12.1456 -12.0555 -12.0528
   -12.0358 -12.0023 -11.9850 -11.9601 -11.8857 -11.8817 -11.8609 -11.8364
   -11.7774 -11.7676 -11.7516 -11.7228 -11.6632 -11.6496 -11.6254 -11.6185
   -11.5945 -11.5745 -11.5552 -11.5059 -11.4955 -11.4625 -11.4406 -11.4305
   -11.3905 -11.3769 -11.3284 -11.2662 -11.2335 -11.2271 -11.1823 -11.1680
   -11.1516 -11.1218 -11.0451 -11.0371 -11.0306 -10.9812 -10.9548 -10.9374
   -10.9163 -10.8795 -10.7439 -10.7241 -10.6927 -10.6655 -10.6430 -10.6301
   -10.6004 -10.3951 -10.1882 -10.1625  -9.9640  -9.9465  -9.6678  -9.4412
    -9.3959  -9.3046  -9.2799  -9.2541  -9.2316  -9.1849  -9.1023  -9.0244
    -8.8937  -8.8585  -8.8461  -8.8041  -8.7470  -8.7125  -8.6348  -8.5884
    -8.5312  -8.4984  -8.4169  -8.4108  -8.3736  -8.3421  -8.2858  -8.2580
    -8.2303  -8.2152  -8.1686  -8.1300  -8.0855  -8.0586  -8.0494  -7.9939
    -7.9915  -7.9300  -7.9197  -7.8833  -7.8677  -7.8310  -7.7561  -7.7092
    -7.6839  -7.6691  -7.6256  -7.5832  -7.5107  -7.4564  -7.4253  -7.3943
    -7.3648  -7.3277  -7.3085  -7.2677  -7.2132  -7.2010  -7.1312  -7.0664
    -7.0602  -7.0536  -6.9884  -6.9834  -6.9737  -6.9126  -6.8753  -6.8511
    -6.8322  -6.7848  -6.7716  -6.7310  -6.7029  -6.6545  -6.5942  -6.5773
    -6.5619  -6.5160  -6.4525  -6.4442  -6.4027  -6.3999  -6.3848  -6.3788
    -6.3457  -6.3020  -6.2894  -6.2846  -6.2241  -6.1972  -6.1648  -6.1570
    -6.1341  -6.1200  -6.1130  -6.0798  -6.0627  -6.0534  -6.0390  -6.0125
    -5.9709  -5.9494  -5.8981  -5.8865  -5.8740  -5.8409  -5.8064  -5.7903
    -5.7825  -5.7686  -5.7501  -5.7134  -5.7128  -5.6884  -5.6637  -5.6186
    -5.5730  -5.5623  -5.5490  -5.5387  -5.5118  -5.5067  -5.4578  -5.4351
    -5.3619  -5.3425  -5.3337  -5.2875  -5.2812  -5.2679  -5.2430  -5.2334
    -5.1949  -5.1798  -5.0984  -5.0668  -5.0631  -5.0048  -4.9709  -4.9280
    -4.8899  -4.8761  -4.8727  -4.7609  -4.7092  -4.7075  -4.6825  -4.6560
    -4.6424  -4.5983  -4.4769  -3.9701  -3.7212  -3.6457  -3.4798  -3.2477

     occupation numbers 
     1.0000   1.0000   1.0000   1.0000   1.0000   1.0000   1.0000   1.0000
     1.0000   1.0000   1.0000   1.0000   1.0000   1.0000   1.0000   1.0000
     1.0000   1.0000   1.0000   1.0000   1.0000   1.0000   1.0000   1.0000
     1.0000   1.0000   1.0000   1.0000   1.0000   1.0000   1.0000   1.0000
     1.0000   1.0000   1.0000   1.0000   1.0000   1.0000   1.0000   1.0000
     1.0000   1.0000   1.0000   1.0000   1.0000   1.0000   1.0000   1.0000
     1.0000   1.0000   1.0000   1.0000   1.0000   1.0000   1.0000   1.0000
     1.0000   1.0000   1.0000   1.0000   1.0000   1.0000   1.0000   1.0000
     1.0000   1.0000   1.0000   1.0000   1.0000   1.0000   1.0000   1.0000
     1.0000   1.0000   1.0000   1.0000   1.0000   1.0000   1.0000   1.0000
     1.0000   1.0000   1.0000   1.0000   1.0000   1.0000   1.0000   1.0000
     1.0000   1.0000   1.0000   1.0000   1.0000   1.0000   1.0000   1.0000
     1.0000   1.0000   1.0000   1.0000   1.0000   1.0000   1.0000   1.0000
     1.0000   1.0000   1.0000   1.0000   1.0000   1.0000   1.0000   1.0000
     1.0000   1.0000   1.0000   1.0000   1.0000   1.0000   1.0000   1.0000
     1.0000   1.0000   1.0000   1.0000   1.0000   1.0000   1.0000   1.0000
     1.0000   1.0000   1.0000   1.0000   1.0000   1.0000   1.0000   1.0000
     1.0000   1.0000   1.0000   1.0000   1.0000   1.0000   1.0000   1.0000
     1.0000   1.0000   1.0000   1.0000   1.0000   1.0000   1.0000   1.0000
     1.0000   1.0000   1.0000   1.0000   1.0000   1.0000   1.0000   1.0000
     1.0000   1.0000   1.0000   1.0000   1.0000   1.0000   1.0000   1.0000
     1.0000   1.0000   1.0000   1.0000   1.0000   1.0000   1.0000   1.0000
     1.0000   1.0000   1.0000   1.0000   1.0000   1.0000   1.0000   1.0000
     1.0000   1.0000   1.0000   1.0000   1.0000   1.0000   1.0000   1.0000
     1.0000   1.0000   1.0000   1.0000   1.0000   1.0000   1.0000   1.0000
     1.0000   1.0000   1.0000   1.0000   1.0000   1.0000   1.0000   1.0000
     1.0000   1.0000   1.0000   1.0000   1.0000   1.0000   1.0000   1.0000
     1.0000   1.0000   1.0000   1.0000   1.0000   1.0000   1.0000   1.0000
     1.0000   1.0000   1.0000   1.0000   1.0000   1.0000   1.0000   1.0000
     1.0000   1.0000   1.0000   1.0000   1.0000   1.0000   1.0000   1.0000
     1.0000   1.0000   1.0000   1.0000   1.0000   1.0000   1.0000   1.0000
     1.0000   1.0000   1.0000   1.0000   1.0000   1.0000   1.0000   1.0000
     1.0000   1.0000   1.0000   1.0000   1.0000   1.0000   1.0000   1.0000
     1.0000   1.0000   1.0000   1.0000   1.0000   1.0000   1.0000   1.0000
     1.0000   1.0000   1.0000   1.0000   1.0000   1.0000   1.0000   1.0000
     1.0000   1.0000   1.0000   1.0000   1.0000   1.0000   1.0000   1.0000
     1.0000   1.0000   1.0000   1.0000   1.0000   1.0000   1.0000   1.0000
     1.0000   1.0000   1.0000   1.0000   1.0000   1.0000   1.0000   1.0000

     highest occupied level (ev):    -3.2477

!    total energy              =   -3348.27789778 Ry
     estimated scf accuracy    <          3.5E-12 Ry

     The total energy is the sum of the following terms:
     one-electron contribution =   -9768.68564157 Ry
     hartree contribution      =    5040.35736227 Ry
     xc contribution           =    -671.37512087 Ry
     ewald contribution        =    2773.82203949 Ry
     one-center paw contrib.   =    -722.39653710 Ry
      -> PAW hartree energy AE =      56.44116001 Ry
      -> PAW hartree energy PS =     -56.17265801 Ry
      -> PAW xc energy AE      =     -33.98586633 Ry
      -> PAW xc energy PS      =      14.70610486 Ry
      -> total E_H with PAW    =    5040.62586427 Ry
      -> total E_XC with PAW   =    -690.65488233 Ry

     convergence has been achieved in  21 iterations

     negative rho (up, down):  3.599E-03 0.000E+00

     Forces acting on atoms (cartesian axes, Ry/au):

     atom    1 type  2   force =     0.00422246   -0.02426904    0.00454369
     atom    2 type  1   force =    -0.01077328    0.04738160   -0.03670127
     atom    3 type  1   force =     0.00027851   -0.01423727    0.03659265
     atom    4 type  2   force =    -0.00228964    0.01778594    0.02572033
     atom    5 type  1   force =    -0.02772142   -0.02331101   -0.04971082
     atom    6 type  1   force =     0.02235547    0.01936651    0.03214660
     atom    7 type  2   force =     0.00065126    0.02256029    0.01635535
     atom    8 type  1   force =     0.00071799   -0.04392456   -0.04034922
     atom    9 type  1   force =    -0.00827701    0.02626246    0.03875114
     atom   10 type  2   force =     0.02824448   -0.01067602    0.02881584
     atom   11 type  1   force =    -0.05390086   -0.01705288   -0.01389072
     atom   12 type  1   force =     0.03639627    0.02172000    0.00590921
     atom   13 type  2   force =     0.00265221   -0.06135090   -0.01809004
     atom   14 type  1   force =     0.01192851    0.00752488    0.00293494
     atom   15 type  1   force =    -0.00741193    0.05451255    0.01443466
     atom   16 type  2   force =    -0.00415792   -0.00075636   -0.04338174
     atom   17 type  1   force =    -0.02109605    0.00447757    0.02405879
     atom   18 type  1   force =     0.00986248    0.00558355    0.01355829
     atom   19 type  2   force =    -0.01345241    0.03306151    0.02022085
     atom   20 type  1   force =     0.01616147    0.02349548    0.00506070
     atom   21 type  1   force =     0.00519748   -0.06015136   -0.01132539
     atom   22 type  2   force =    -0.00217665   -0.01406810    0.00573240
     atom   23 type  1   force =    -0.00202894    0.02000386   -0.03194006
     atom   24 type  1   force =    -0.02174382   -0.03857829    0.01940118
     atom   25 type  2   force =     0.00579664    0.00276598   -0.00069941
     atom   26 type  1   force =    -0.03085258    0.00723297   -0.01323354
     atom   27 type  1   force =     0.02926190   -0.00194484    0.00425888
     atom   28 type  2   force =    -0.01278170   -0.02130518   -0.00641087
     atom   29 type  1   force =     0.00079619    0.03255067   -0.00006159
     atom   30 type  1   force =     0.02230568   -0.03063596   -0.01282246
     atom   31 type  2   force =    -0.00857532    0.01255607    0.00382066
     atom   32 type  1   force =    -0.01954356    0.00094445   -0.01165951
     atom   33 type  1   force =     0.03655554   -0.02609877    0.02209126
     atom   34 type  2   force =     0.01788163    0.00638090    0.01370957
     atom   35 type  1   force =    -0.01957288   -0.02986176    0.01788704
     atom   36 type  1   force =     0.01156102    0.01872116   -0.02506371
     atom   37 type  2   force =    -0.02081126    0.02698767    0.01179669
     atom   38 type  1   force =     0.03815694   -0.01243063   -0.01864744
     atom   39 type  1   force =    -0.00452104   -0.00848184    0.00438522
     atom   40 type  2   force =     0.03368428    0.01821651    0.01348126
     atom   41 type  1   force =    -0.01256412    0.02295287   -0.04994739
     atom   42 type  1   force =    -0.03325968   -0.03857699    0.03623708
     atom   43 type  2   force =    -0.02019182    0.01827429    0.02425211
     atom   44 type  1   force =     0.01279338   -0.01166819   -0.02860276
     atom   45 type  1   force =    -0.00955163   -0.00733016    0.01379096
     atom   46 type  2   force =    -0.00448286   -0.02909122    0.01620240
     atom   47 type  1   force =    -0.00599148    0.01136087   -0.05769972
     atom   48 type  1   force =     0.01201164    0.02376254    0.04702654
     atom   49 type  2   force =    -0.02427236   -0.00684701   -0.03082389
     atom   50 type  1   force =     0.05935196    0.00150970    0.00232888
     atom   51 type  1   force =    -0.03890061    0.01146981    0.03337065
     atom   52 type  2   force =    -0.01312550    0.00546879    0.02334002
     atom   53 type  1   force =     0.03022210   -0.01392643    0.00659653
     atom   54 type  1   force =    -0.02231912    0.00193901   -0.00178672
     atom   55 type  2   force =     0.02259516    0.00824439   -0.04406926
     atom   56 type  1   force =     0.01367157    0.01306214    0.05596874
     atom   57 type  1   force =    -0.02771380   -0.02081162   -0.01280468
     atom   58 type  2   force =    -0.01291161   -0.00690320    0.02546311
     atom   59 type  1   force =    -0.01591845   -0.00029018   -0.01635032
     atom   60 type  1   force =     0.02257067   -0.00103879    0.01168602
     atom   61 type  2   force =     0.02492777    0.01759748   -0.01473673
     atom   62 type  1   force =     0.04219617    0.00392271   -0.00100956
     atom   63 type  1   force =    -0.05221313   -0.02409879    0.01112932
     atom   64 type  2   force =    -0.00124280   -0.01004463    0.02309931
     atom   65 type  1   force =    -0.03119942   -0.00685219    0.03267073
     atom   66 type  1   force =     0.04454991    0.01022933   -0.04074231
     atom   67 type  2   force =    -0.01312611   -0.00724705   -0.01086833
     atom   68 type  1   force =     0.00064242   -0.01944549   -0.04233203
     atom   69 type  1   force =     0.00003803    0.03735216    0.04464736
     atom   70 type  2   force =    -0.01887604   -0.01570162   -0.01647735
     atom   71 type  1   force =    -0.00441742    0.00241162   -0.01377884
     atom   72 type  1   force =     0.00358324    0.01316597    0.02502300
     atom   73 type  2   force =     0.02546047   -0.01465744    0.03448533
     atom   74 type  1   force =     0.01175632    0.00996313    0.01986719
     atom   75 type  1   force =    -0.02812353    0.01300186   -0.05004133
     atom   76 type  2   force =     0.02989160    0.02746599    0.01861446
     atom   77 type  1   force =     0.01129081   -0.01879174    0.01697063
     atom   78 type  1   force =    -0.04562328   -0.01668714   -0.02286210
     atom   79 type  2   force =    -0.01457868   -0.00610409   -0.02916366
     atom   80 type  1   force =     0.03397989    0.01971462    0.04742988
     atom   81 type  1   force =    -0.01241474   -0.00885395   -0.03351985
     atom   82 type  2   force =    -0.00231273   -0.00898905   -0.02079213
     atom   83 type  1   force =     0.01845961   -0.02639660   -0.00153206
     atom   84 type  1   force =    -0.02307947    0.03292400    0.01411180
     atom   85 type  2   force =     0.02796566    0.01467567    0.00758482
     atom   86 type  1   force =    -0.00958687   -0.01322763   -0.01417621
     atom   87 type  1   force =    -0.03799096    0.00787614   -0.00186305
     atom   88 type  2   force =    -0.02872291   -0.02007826   -0.04599123
     atom   89 type  1   force =     0.05268032    0.00272208   -0.01648988
     atom   90 type  1   force =    -0.03231906    0.01361251    0.04337353
     atom   91 type  2   force =     0.00559371   -0.01734579   -0.01210352
     atom   92 type  1   force =     0.02834856    0.02201946    0.04973356
     atom   93 type  1   force =    -0.03674621    0.00089399   -0.02561804
     atom   94 type  2   force =     0.01077913    0.00431021    0.03923814
     atom   95 type  1   force =     0.03142322   -0.03061193   -0.02902311
     atom   96 type  1   force =    -0.04636319    0.03321451   -0.00577330
     atom   97 type  2   force =    -0.00319718   -0.00554112   -0.01164803
     atom   98 type  1   force =     0.00283428    0.00112304    0.01139155
     atom   99 type  1   force =    -0.00431922    0.00201769   -0.00797823
     atom  100 type  2   force =    -0.02074559    0.00393826   -0.02012974
     atom  101 type  1   force =     0.00344244    0.01834053   -0.00904528
     atom  102 type  1   force =     0.02907680   -0.01187656    0.01390701
     atom  103 type  2   force =     0.00774319    0.03566402    0.00599692
     atom  104 type  1   force =     0.02234766    0.01511881   -0.03856730
     atom  105 type  1   force =    -0.02528729   -0.02222208    0.03318049
     atom  106 type  2   force =     0.01266325   -0.01375706    0.00100546
     atom  107 type  1   force =     0.00561466    0.01309893    0.02471341
     atom  108 type  1   force =    -0.01849210   -0.01353333   -0.01348513
     atom  109 type  2   force =    -0.01262843    0.03560754    0.00334081
     atom  110 type  1   force =     0.00984425   -0.03931039   -0.00268431
     atom  111 type  1   force =     0.00930703    0.00729623    0.01858245
     atom  112 type  2   force =     0.00706331    0.03089278   -0.01916843
     atom  113 type  1   force =    -0.02482860    0.03160582    0.02883050
     atom  114 type  1   force =     0.01980002   -0.05508608   -0.01736152
     atom  115 type  2   force =     0.00869395    0.01611049   -0.00763081
     atom  116 type  1   force =    -0.01478291    0.02610956   -0.01385122
     atom  117 type  1   force =    -0.00625919   -0.02977448    0.03936151
     atom  118 type  2   force =     0.02584350    0.00211046    0.00029363
     atom  119 type  1   force =    -0.03588113   -0.03043951    0.04563772
     atom  120 type  1   force =     0.00163014    0.01586652   -0.05169400
     atom  121 type  2   force =    -0.05146125   -0.01830453    0.00002429
     atom  122 type  1   force =     0.05170719    0.02050638    0.00288249
     atom  123 type  1   force =    -0.00506986   -0.01624593    0.00571806
     atom  124 type  2   force =     0.02036294    0.01733313    0.00816666
     atom  125 type  1   force =     0.01728408   -0.04214363   -0.03890304
     atom  126 type  1   force =    -0.03597758    0.01714713    0.02912541
     atom  127 type  2   force =     0.01808357    0.03406642   -0.02642599
     atom  128 type  1   force =     0.00376474    0.01713071   -0.01133093
     atom  129 type  1   force =    -0.02563379   -0.04359076    0.03160968
     atom  130 type  2   force =    -0.03334438    0.00010453    0.00545046
     atom  131 type  1   force =     0.00386084    0.00391248    0.03626219
     atom  132 type  1   force =     0.03598579    0.00569149   -0.03740163
     atom  133 type  2   force =    -0.01226919    0.00113422   -0.01937926
     atom  134 type  1   force =     0.03107117   -0.01034925    0.03847408
     atom  135 type  1   force =    -0.00462523    0.01394664   -0.02083802
     atom  136 type  2   force =     0.01218846   -0.01108797    0.01739206
     atom  137 type  1   force =     0.01479340    0.01503326   -0.05732462
     atom  138 type  1   force =    -0.01766336    0.00090678    0.04018360
     atom  139 type  2   force =    -0.04247362   -0.00161573    0.03748353
     atom  140 type  1   force =    -0.01096056    0.00864621   -0.00565944
     atom  141 type  1   force =     0.04208768   -0.00200169   -0.04109679
     atom  142 type  2   force =    -0.01410544    0.01523918   -0.04011962
     atom  143 type  1   force =    -0.01007391    0.03971934    0.03213327
     atom  144 type  1   force =     0.01917669   -0.05348449   -0.00403376
     atom  145 type  2   force =     0.01875579   -0.01659719   -0.03715237
     atom  146 type  1   force =    -0.02797417    0.05014038   -0.00592640
     atom  147 type  1   force =     0.01189091   -0.03926598    0.03885735
     atom  148 type  2   force =     0.01513366    0.03133093    0.00910735
     atom  149 type  1   force =    -0.03664958    0.02446396   -0.01286806
     atom  150 type  1   force =     0.01264448   -0.05584721   -0.00386377
     atom  151 type  2   force =     0.04071028    0.05272417   -0.01359427
     atom  152 type  1   force =     0.01896767   -0.02977069    0.03948192
     atom  153 type  1   force =    -0.03584371   -0.00422286   -0.03655219
     atom  154 type  2   force =    -0.03613442   -0.00134502    0.00734595
     atom  155 type  1   force =     0.03604843    0.01410386    0.03937376
     atom  156 type  1   force =     0.00733859   -0.01638837   -0.04943247
     atom  157 type  2   force =     0.01128412   -0.02875334    0.00576183
     atom  158 type  1   force =    -0.01970752    0.03765430    0.04116633
     atom  159 type  1   force =     0.00795076   -0.01504893   -0.04564688
     atom  160 type  2   force =     0.03956506   -0.00876898   -0.00420980
     atom  161 type  1   force =    -0.02781117   -0.03718095   -0.03073338
     atom  162 type  1   force =    -0.00299578    0.04760870    0.03222632
     atom  163 type  2   force =    -0.01516851    0.00031682   -0.02519986
     atom  164 type  1   force =     0.04841752    0.02074001    0.00558272
     atom  165 type  1   force =    -0.02982924   -0.00893753    0.02277343
     atom  166 type  2   force =     0.02152080   -0.00860359    0.01008957
     atom  167 type  1   force =    -0.01714063   -0.02803994   -0.04780740
     atom  168 type  1   force =    -0.00406944    0.04178167    0.03623540
     atom  169 type  2   force =    -0.01303657    0.01333918    0.00773622
     atom  170 type  1   force =    -0.01919947    0.02737839    0.00112253
     atom  171 type  1   force =     0.01876143   -0.06065296   -0.01070427
     atom  172 type  2   force =     0.02788934   -0.01481306   -0.00186580
     atom  173 type  1   force =    -0.00868664   -0.03275690    0.02644322
     atom  174 type  1   force =    -0.01154748    0.02917063   -0.02317604
     atom  175 type  2   force =     0.01181508    0.01399952   -0.03418193
     atom  176 type  1   force =     0.00843569   -0.04942234   -0.02007707
     atom  177 type  1   force =    -0.00875431    0.02903551    0.04761654
     atom  178 type  2   force =     0.00725357    0.03031798   -0.01409830
     atom  179 type  1   force =    -0.04701640   -0.00140852   -0.01091449
     atom  180 type  1   force =     0.04776777   -0.02839561    0.02265162
     atom  181 type  2   force =     0.04170671    0.00387242   -0.00213535
     atom  182 type  1   force =     0.01940279    0.00193770   -0.00008573
     atom  183 type  1   force =    -0.05042292   -0.01252782   -0.01286925
     atom  184 type  2   force =    -0.02616937   -0.00356771   -0.03464598
     atom  185 type  1   force =     0.01950646   -0.03955475    0.03223456
     atom  186 type  1   force =     0.00171776    0.03287096   -0.01688282
     atom  187 type  2   force =     0.00254631    0.01153572    0.02687745
     atom  188 type  1   force =    -0.02711834   -0.03566649   -0.01811199
     atom  189 type  1   force =     0.01471888    0.02366521   -0.00864322
     atom  190 type  2   force =     0.04267367   -0.01400459   -0.00863731
     atom  191 type  1   force =     0.00883961   -0.02343625    0.00260074
     atom  192 type  1   force =    -0.05075914    0.03175282    0.00346939
     atom  193 type  2   force =    -0.01442149   -0.01757107   -0.02127702
     atom  194 type  1   force =    -0.04465140    0.00716204    0.01457234
     atom  195 type  1   force =     0.03765583    0.00095955   -0.00938905
     atom  196 type  2   force =    -0.02158531    0.00364592   -0.02276434
     atom  197 type  1   force =     0.02711528   -0.00760770    0.03915099
     atom  198 type  1   force =    -0.01063645    0.00386761   -0.00968118
     atom  199 type  2   force =     0.02779102   -0.01652832   -0.00186816
     atom  200 type  1   force =    -0.01407576   -0.02474468   -0.01517460
     atom  201 type  1   force =    -0.00486224    0.03517759    0.01733202
     atom  202 type  2   force =    -0.00842295   -0.00580269   -0.03563833
     atom  203 type  1   force =    -0.01636774   -0.02008568    0.03050889
     atom  204 type  1   force =     0.02901308    0.03053359   -0.01395591
     atom  205 type  2   force =     0.01867081   -0.02694563   -0.00092530
     atom  206 type  1   force =    -0.04794148    0.03498448    0.01148435
     atom  207 type  1   force =     0.02888538   -0.01472714   -0.00217214
     atom  208 type  2   force =     0.02542753   -0.02146936    0.02889873
     atom  209 type  1   force =     0.02575774    0.01247304    0.00386320
     atom  210 type  1   force =    -0.04470981    0.01352156   -0.03456459
     atom  211 type  2   force =     0.00543983    0.00198780   -0.01797751
     atom  212 type  1   force =    -0.00999981    0.03486845    0.02611225
     atom  213 type  1   force =    -0.00201165   -0.03273994    0.00210282
     atom  214 type  2   force =     0.02619640    0.00595593    0.01980572
     atom  215 type  1   force =    -0.02635311    0.00657443    0.02792400
     atom  216 type  1   force =    -0.00718806   -0.01346327   -0.04597329
     atom  217 type  2   force =     0.00224342   -0.00840438   -0.00149867
     atom  218 type  1   force =     0.03804099   -0.01316718    0.02709206
     atom  219 type  1   force =    -0.02826877    0.00144831   -0.03196460
     atom  220 type  2   force =    -0.01138512    0.00721591    0.02190381
     atom  221 type  1   force =     0.01689864   -0.03955606   -0.01117318
     atom  222 type  1   force =    -0.01428919    0.05308546   -0.01226071
     atom  223 type  2   force =     0.01770950    0.00801051    0.04132336
     atom  224 type  1   force =    -0.00652433    0.01226353   -0.05090393
     atom  225 type  1   force =     0.00391518   -0.01062390    0.03355145
     atom  226 type  2   force =    -0.00459859   -0.01145830    0.04470267
     atom  227 type  1   force =    -0.01582716   -0.01650902   -0.04520430
     atom  228 type  1   force =     0.03031639    0.03339287   -0.01503188
     The non-local contrib.  to forces
     atom    1 type  2   force =     1.25280757   -1.33575197   -1.11099829
     atom    2 type  1   force =    -0.04740740    0.07657583   -0.03655481
     atom    3 type  1   force =    -0.01638412   -0.01554740    0.09360712
     atom    4 type  2   force =     1.93382657   -0.14402517    0.02939912
     atom    5 type  1   force =    -0.06185582   -0.03477863   -0.06705518
     atom    6 type  1   force =    -0.04383211    0.05156359    0.06934408
     atom    7 type  2   force =     0.59493837    1.89839391   -0.79526651
     atom    8 type  1   force =    -0.00867498   -0.08284425   -0.05013694
     atom    9 type  1   force =    -0.02085472   -0.00887565    0.09262181
     atom   10 type  2   force =     0.64664606   -1.12391992    1.54284243
     atom   11 type  1   force =    -0.08979034   -0.00363267   -0.03896556
     atom   12 type  1   force =     0.05608223    0.07108934   -0.03840500
     atom   13 type  2   force =    -1.23271072   -1.54127771    0.35756173
     atom   14 type  1   force =     0.08292160   -0.02389667   -0.04103274
     atom   15 type  1   force =    -0.00651038    0.09397257    0.02268003
     atom   16 type  2   force =    -0.52442313   -1.06940059   -1.35458262
     atom   17 type  1   force =    -0.02612575   -0.00491296    0.09415308
     atom   18 type  1   force =     0.06805621    0.06704753   -0.01716886
     atom   19 type  2   force =     0.00883392    1.18506722   -1.63937434
     atom   20 type  1   force =    -0.01588375    0.04178516    0.08378939
     atom   21 type  1   force =     0.00289795   -0.09729207    0.00477173
     atom   22 type  2   force =     1.78883482   -0.19826017    0.43583159
     atom   23 type  1   force =    -0.03390190    0.05915082   -0.06946571
     atom   24 type  1   force =    -0.06755260   -0.05325322    0.04130233
     atom   25 type  2   force =     0.13682936    0.86300087    1.61398083
     atom   26 type  1   force =    -0.08414763   -0.01228432   -0.04752375
     atom   27 type  1   force =     0.07389532   -0.04230552   -0.04336962
     atom   28 type  2   force =    -1.84399558   -0.32143640    0.02889022
     atom   29 type  1   force =     0.04527577    0.08537050    0.01717231
     atom   30 type  1   force =     0.06223517   -0.07374729   -0.01850676
     atom   31 type  2   force =     0.93839533    1.64489604   -0.41032237
     atom   32 type  1   force =    -0.09656758   -0.00927392   -0.01668258
     atom   33 type  1   force =     0.04015620   -0.07925600    0.04273633
     atom   34 type  2   force =    -1.10582000   -0.48995779   -1.33253781
     atom   35 type  1   force =     0.00685492   -0.04702474    0.08514502
     atom   36 type  1   force =     0.06024262    0.07374733   -0.00621067
     atom   37 type  2   force =    -1.27021700    0.72779938   -1.02232249
     atom   38 type  1   force =     0.08822096   -0.03564720   -0.02733345
     atom   39 type  1   force =    -0.01470760   -0.00543395    0.09521854
     atom   40 type  2   force =     1.68362045    0.93959756    1.12175282
     atom   41 type  1   force =    -0.02515458    0.03127310   -0.08963572
     atom   42 type  1   force =    -0.05106753   -0.07600821    0.03214617
     atom   43 type  2   force =     0.82877883    0.05035599    1.46591887
     atom   44 type  1   force =     0.03653443   -0.02176889   -0.08897918
     atom   45 type  1   force =    -0.09216537    0.02509467   -0.00290291
     atom   46 type  2   force =    -0.09231477   -2.18269765    0.32676206
     atom   47 type  1   force =    -0.00209098    0.04280420   -0.08770227
     atom   48 type  1   force =     0.01104072    0.06265067    0.07572655
     atom   49 type  2   force =    -0.86700497    0.44539830   -1.77963828
     atom   50 type  1   force =     0.09601087    0.00263927    0.01833850
     atom   51 type  1   force =    -0.05389470   -0.03240834    0.07599716
     atom   52 type  2   force =     0.25959891    1.38191889   -1.02069494
     atom   53 type  1   force =     0.06981353   -0.05785940    0.03524249
     atom   54 type  1   force =    -0.08521638   -0.01766024    0.03771856
     atom   55 type  2   force =     1.19678829    0.88694529   -1.60493728
     atom   56 type  1   force =     0.01493645    0.01158325    0.09501623
     atom   57 type  1   force =    -0.07927564   -0.05502040   -0.02317357
     atom   58 type  2   force =    -0.22864369    0.72546493    1.66181005
     atom   59 type  1   force =    -0.06974251    0.00564912   -0.06869750
     atom   60 type  1   force =     0.08178160   -0.04630334   -0.03142315
     atom   61 type  2   force =     0.20584887    1.01506912   -1.96411522
     atom   62 type  1   force =     0.07537803   -0.00461834    0.06073013
     atom   63 type  1   force =    -0.08017385   -0.04269673    0.03304782
     atom   64 type  2   force =     0.94183854   -0.63802712    1.78423311
     atom   65 type  1   force =    -0.09678729   -0.00778705   -0.01282644
     atom   66 type  1   force =     0.04644704    0.03686710   -0.07759410
     atom   67 type  2   force =     1.07303468   -1.71587646    0.31375563
     atom   68 type  1   force =    -0.05611536    0.01008285   -0.07766011
     atom   69 type  1   force =    -0.00439018    0.07554746    0.06185632
     atom   70 type  2   force =    -0.76112599    1.46822147   -0.59783294
     atom   71 type  1   force =    -0.01530937   -0.08191697   -0.04601437
     atom   72 type  1   force =     0.06119723   -0.00914804    0.07474796
     atom   73 type  2   force =    -0.94576505   -0.65367425    1.57914780
     atom   74 type  1   force =     0.09640477    0.00592877    0.00525761
     atom   75 type  1   force =    -0.03564374    0.02846743   -0.08589859
     atom   76 type  2   force =     0.50511384    1.94830487    0.34062274
     atom   77 type  1   force =     0.06208081   -0.06962277    0.02839702
     atom   78 type  1   force =    -0.08298641   -0.03427806   -0.03967780
     atom   79 type  2   force =    -1.94538592   -0.50618733    0.69519797
[...]
     atom   20 type  1   force =     0.00000001   -0.00000001   -0.00000008
     atom   21 type  1   force =    -0.00000000    0.00000009   -0.00000002
     atom   22 type  2   force =    -0.00000004   -0.00000000    0.00000000
     atom   23 type  1   force =    -0.00000002    0.00000002   -0.00000004
     atom   24 type  1   force =    -0.00000003   -0.00000001    0.00000001
     atom   25 type  2   force =     0.00000006   -0.00000006   -0.00000003
     atom   26 type  1   force =    -0.00000004   -0.00000002   -0.00000004
     atom   27 type  1   force =     0.00000005   -0.00000003   -0.00000004
     atom   28 type  2   force =    -0.00000002    0.00000001    0.00000005
     atom   29 type  1   force =     0.00000001    0.00000000    0.00000001
     atom   30 type  1   force =     0.00000001   -0.00000002    0.00000001
     atom   31 type  2   force =     0.00000009   -0.00000010   -0.00000003
     atom   32 type  1   force =     0.00000003   -0.00000002   -0.00000000
     atom   33 type  1   force =    -0.00000000   -0.00000001   -0.00000001
     atom   34 type  2   force =    -0.00000017   -0.00000009   -0.00000006
     atom   35 type  1   force =    -0.00000001   -0.00000001   -0.00000000
     atom   36 type  1   force =     0.00000001    0.00000000    0.00000000
     atom   37 type  2   force =    -0.00000005   -0.00000008    0.00000003
     atom   38 type  1   force =     0.00000000   -0.00000001    0.00000000
     atom   39 type  1   force =    -0.00000000   -0.00000001    0.00000001
     atom   40 type  2   force =     0.00000038    0.00000027    0.00000015
     atom   41 type  1   force =     0.00000006   -0.00000001    0.00000011
     atom   42 type  1   force =     0.00000009    0.00000010   -0.00000003
     atom   43 type  2   force =     0.00000003   -0.00000001    0.00000014
     atom   44 type  1   force =    -0.00000001   -0.00000000    0.00000003
     atom   45 type  1   force =     0.00000003   -0.00000001    0.00000001
     atom   46 type  2   force =    -0.00000005   -0.00000033    0.00000016
     atom   47 type  1   force =    -0.00000001   -0.00000006    0.00000009
     atom   48 type  1   force =    -0.00000002   -0.00000008   -0.00000006
     atom   49 type  2   force =    -0.00000028    0.00000000   -0.00000031
     atom   50 type  1   force =    -0.00000012   -0.00000000   -0.00000004
     atom   51 type  1   force =     0.00000004    0.00000000   -0.00000011
     atom   52 type  2   force =     0.00000004    0.00000024   -0.00000011
     atom   53 type  1   force =    -0.00000005    0.00000006   -0.00000003
     atom   54 type  1   force =     0.00000004    0.00000003   -0.00000002
     atom   55 type  2   force =    -0.00000005   -0.00000005   -0.00000003
     atom   56 type  1   force =     0.00000000   -0.00000000    0.00000002
     atom   57 type  1   force =    -0.00000001   -0.00000001   -0.00000001
     atom   58 type  2   force =    -0.00000025    0.00000015    0.00000012
     atom   59 type  1   force =    -0.00000001    0.00000001    0.00000003
     atom   60 type  1   force =    -0.00000006    0.00000002    0.00000002
     atom   61 type  2   force =     0.00000003    0.00000003   -0.00000006
     atom   62 type  1   force =    -0.00000003   -0.00000000   -0.00000002
     atom   63 type  1   force =     0.00000005    0.00000002   -0.00000002
     atom   64 type  2   force =    -0.00000004   -0.00000004    0.00000007
     atom   65 type  1   force =    -0.00000004    0.00000001   -0.00000001
     atom   66 type  1   force =    -0.00000000    0.00000000   -0.00000001
     atom   67 type  2   force =     0.00000021   -0.00000020    0.00000004
     atom   68 type  1   force =     0.00000006   -0.00000003    0.00000006
     atom   69 type  1   force =     0.00000003   -0.00000005   -0.00000003
     atom   70 type  2   force =     0.00000002    0.00000004    0.00000001
     atom   71 type  1   force =     0.00000001    0.00000004    0.00000003
     atom   72 type  1   force =     0.00000000   -0.00000001   -0.00000001
     atom   73 type  2   force =    -0.00000002    0.00000007   -0.00000005
     atom   74 type  1   force =     0.00000002    0.00000001   -0.00000000
     atom   75 type  1   force =     0.00000000    0.00000001   -0.00000001
     atom   76 type  2   force =     0.00000011    0.00000020    0.00000006
     atom   77 type  1   force =     0.00000002    0.00000004    0.00000000
     atom   78 type  1   force =     0.00000004    0.00000003    0.00000002
     atom   79 type  2   force =    -0.00000033   -0.00000009   -0.00000010
     atom   80 type  1   force =    -0.00000005   -0.00000001   -0.00000002
     atom   81 type  1   force =    -0.00000003   -0.00000001   -0.00000000
     atom   82 type  2   force =    -0.00000004   -0.00000018   -0.00000009
     atom   83 type  1   force =    -0.00000007   -0.00000000   -0.00000003
     atom   84 type  1   force =     0.00000000   -0.00000005   -0.00000002
     atom   85 type  2   force =     0.00000003    0.00000012   -0.00000002
     atom   86 type  1   force =    -0.00000001    0.00000004   -0.00000002
     atom   87 type  1   force =     0.00000004    0.00000000   -0.00000001
     atom   88 type  2   force =    -0.00000028   -0.00000011   -0.00000032
     atom   89 type  1   force =    -0.00000011   -0.00000001   -0.00000002
     atom   90 type  1   force =     0.00000001   -0.00000003   -0.00000010
     atom   91 type  2   force =    -0.00000022    0.00000004    0.00000006
     atom   92 type  1   force =    -0.00000003    0.00000003    0.00000011
     atom   93 type  1   force =    -0.00000011   -0.00000001   -0.00000002
     atom   94 type  2   force =     0.00000020    0.00000003    0.00000052
     atom   95 type  1   force =    -0.00000001    0.00000005    0.00000010
     atom   96 type  1   force =     0.00000009   -0.00000004    0.00000006
     atom   97 type  2   force =     0.00000007   -0.00000005   -0.00000001
     atom   98 type  1   force =     0.00000001   -0.00000001   -0.00000001
     atom   99 type  1   force =    -0.00000000    0.00000001    0.00000004
     atom  100 type  2   force =     0.00000003   -0.00000003    0.00000004
     atom  101 type  1   force =     0.00000000    0.00000002   -0.00000003
     atom  102 type  1   force =     0.00000005   -0.00000001    0.00000002
     atom  103 type  2   force =     0.00000009    0.00000018   -0.00000004
     atom  104 type  1   force =     0.00000001    0.00000001    0.00000001
     atom  105 type  1   force =     0.00000001   -0.00000000    0.00000000
     atom  106 type  2   force =     0.00000010   -0.00000017    0.00000004
     atom  107 type  1   force =     0.00000001   -0.00000003   -0.00000001
     atom  108 type  1   force =     0.00000002   -0.00000002    0.00000003
     atom  109 type  2   force =    -0.00000000   -0.00000001   -0.00000002
     atom  110 type  1   force =    -0.00000000    0.00000001   -0.00000000
     atom  111 type  1   force =    -0.00000000   -0.00000000    0.00000000
     atom  112 type  2   force =    -0.00000013    0.00000040   -0.00000022
     atom  113 type  1   force =     0.00000001    0.00000002   -0.00000011
     atom  114 type  1   force =    -0.00000005    0.00000012   -0.00000000
     atom  115 type  2   force =    -0.00000007    0.00000007    0.00000008
     atom  116 type  1   force =    -0.00000005   -0.00000002    0.00000005
     atom  117 type  1   force =    -0.00000001    0.00000004   -0.00000001
     atom  118 type  2   force =     0.00000005    0.00000009    0.00000004
     atom  119 type  1   force =    -0.00000001    0.00000001   -0.00000000
     atom  120 type  1   force =    -0.00000000   -0.00000000    0.00000000
     atom  121 type  2   force =     0.00000013   -0.00000007    0.00000001
     atom  122 type  1   force =     0.00000004    0.00000000   -0.00000001
     atom  123 type  1   force =    -0.00000001   -0.00000005   -0.00000005
     atom  124 type  2   force =     0.00000019    0.00000009    0.00000013
     atom  125 type  1   force =     0.00000001    0.00000003    0.00000004
     atom  126 type  1   force =     0.00000002   -0.00000000    0.00000000
     atom  127 type  2   force =    -0.00000007    0.00000016   -0.00000027
     atom  128 type  1   force =    -0.00000005   -0.00000002   -0.00000002
     atom  129 type  1   force =     0.00000000    0.00000004   -0.00000005
     atom  130 type  2   force =    -0.00000008   -0.00000016    0.00000006
     atom  131 type  1   force =     0.00000000   -0.00000004   -0.00000004
     atom  132 type  1   force =    -0.00000002   -0.00000003    0.00000005
     atom  133 type  2   force =     0.00000008    0.00000010   -0.00000004
     atom  134 type  1   force =    -0.00000001    0.00000002   -0.00000001
     atom  135 type  1   force =     0.00000003    0.00000002    0.00000001
     atom  136 type  2   force =     0.00000014   -0.00000009    0.00000009
     atom  137 type  1   force =     0.00000001   -0.00000004    0.00000010
     atom  138 type  1   force =     0.00000009    0.00000000   -0.00000001
     atom  139 type  2   force =     0.00000003    0.00000003   -0.00000006
     atom  140 type  1   force =     0.00000001    0.00000000    0.00000002
     atom  141 type  1   force =    -0.00000001    0.00000000    0.00000001
     atom  142 type  2   force =    -0.00000002    0.00000013   -0.00000007
     atom  143 type  1   force =    -0.00000000   -0.00000000   -0.00000001
     atom  144 type  1   force =     0.00000000    0.00000001   -0.00000000
     atom  145 type  2   force =     0.00000004   -0.00000007   -0.00000019
     atom  146 type  1   force =     0.00000003   -0.00000005   -0.00000001
     atom  147 type  1   force =    -0.00000001    0.00000002   -0.00000006
     atom  148 type  2   force =     0.00000014    0.00000025    0.00000002
     atom  149 type  1   force =     0.00000009   -0.00000002    0.00000000
     atom  150 type  1   force =     0.00000001    0.00000010    0.00000001
     atom  151 type  2   force =     0.00000008    0.00000021    0.00000003
     atom  152 type  1   force =    -0.00000000    0.00000004   -0.00000003
     atom  153 type  1   force =     0.00000003    0.00000002    0.00000002
     atom  154 type  2   force =    -0.00000020   -0.00000014    0.00000003
     atom  155 type  1   force =    -0.00000008   -0.00000006   -0.00000004
     atom  156 type  1   force =    -0.00000003   -0.00000001    0.00000008
     atom  157 type  2   force =    -0.00000015    0.00000014   -0.00000015
     atom  158 type  1   force =    -0.00000003    0.00000006    0.00000001
     atom  159 type  1   force =    -0.00000003    0.00000001   -0.00000008
     atom  160 type  2   force =     0.00000030   -0.00000025   -0.00000006
     atom  161 type  1   force =     0.00000008    0.00000002    0.00000004
     atom  162 type  1   force =     0.00000004   -0.00000009   -0.00000004
     atom  163 type  2   force =    -0.00000015    0.00000015   -0.00000027
     atom  164 type  1   force =    -0.00000007   -0.00000000   -0.00000003
     atom  165 type  1   force =     0.00000001    0.00000004   -0.00000006
     atom  166 type  2   force =     0.00000005   -0.00000007    0.00000001
     atom  167 type  1   force =     0.00000000   -0.00000001    0.00000001
     atom  168 type  1   force =     0.00000000   -0.00000001    0.00000000
     atom  169 type  2   force =     0.00000010   -0.00000003    0.00000002
     atom  170 type  1   force =    -0.00000001    0.00000000   -0.00000001
     atom  171 type  1   force =     0.00000000    0.00000000    0.00000000
     atom  172 type  2   force =    -0.00000004   -0.00000010    0.00000006
     atom  173 type  1   force =    -0.00000003   -0.00000002    0.00000003
     atom  174 type  1   force =    -0.00000003    0.00000000   -0.00000001
     atom  175 type  2   force =     0.00000013    0.00000008   -0.00000033
     atom  176 type  1   force =     0.00000002    0.00000010   -0.00000000
     atom  177 type  1   force =     0.00000004   -0.00000002   -0.00000010
     atom  178 type  2   force =    -0.00000002   -0.00000010    0.00000001
     atom  179 type  1   force =    -0.00000001   -0.00000002    0.00000001
     atom  180 type  1   force =    -0.00000001   -0.00000001   -0.00000000
     atom  181 type  2   force =     0.00000030    0.00000003   -0.00000023
     atom  182 type  1   force =    -0.00000000   -0.00000001   -0.00000005
     atom  183 type  1   force =     0.00000010    0.00000001   -0.00000005
     atom  184 type  2   force =    -0.00000023    0.00000009   -0.00000023
     atom  185 type  1   force =    -0.00000004    0.00000005   -0.00000005
     atom  186 type  1   force =    -0.00000002   -0.00000004   -0.00000002
     atom  187 type  2   force =    -0.00000007   -0.00000002    0.00000002
     atom  188 type  1   force =    -0.00000001   -0.00000003   -0.00000002
     atom  189 type  1   force =     0.00000000   -0.00000000   -0.00000000
     atom  190 type  2   force =     0.00000028    0.00000001    0.00000003
     atom  191 type  1   force =     0.00000002    0.00000004    0.00000001
     atom  192 type  1   force =     0.00000006   -0.00000001    0.00000000
     atom  193 type  2   force =     0.00000009    0.00000001    0.00000004
     atom  194 type  1   force =    -0.00000000   -0.00000001    0.00000003
     atom  195 type  1   force =     0.00000001   -0.00000001    0.00000001
     atom  196 type  2   force =     0.00000012    0.00000003    0.00000001
     atom  197 type  1   force =     0.00000001   -0.00000001    0.00000001
     atom  198 type  1   force =     0.00000001   -0.00000000   -0.00000000
     atom  199 type  2   force =     0.00000013   -0.00000010   -0.00000001
     atom  200 type  1   force =     0.00000002    0.00000001    0.00000000
     atom  201 type  1   force =     0.00000002   -0.00000004   -0.00000001
     atom  202 type  2   force =    -0.00000002    0.00000005    0.00000019
     atom  203 type  1   force =    -0.00000000    0.00000000    0.00000003
     atom  204 type  1   force =     0.00000001    0.00000002    0.00000002
     atom  205 type  2   force =    -0.00000014    0.00000024    0.00000001
     atom  206 type  1   force =    -0.00000003    0.00000005    0.00000000
     atom  207 type  1   force =     0.00000004    0.00000004   -0.00000001
     atom  208 type  2   force =     0.00000017   -0.00000018    0.00000031
     atom  209 type  1   force =     0.00000000   -0.00000002    0.00000002
     atom  210 type  1   force =     0.00000003   -0.00000002    0.00000004
     atom  211 type  2   force =    -0.00000001   -0.00000005   -0.00000005
     atom  212 type  1   force =    -0.00000001   -0.00000001   -0.00000001
     atom  213 type  1   force =    -0.00000002   -0.00000003   -0.00000000
     atom  214 type  2   force =     0.00000029    0.00000004    0.00000008
     atom  215 type  1   force =     0.00000012   -0.00000000   -0.00000008
     atom  216 type  1   force =     0.00000005    0.00000002    0.00000011
     atom  217 type  2   force =    -0.00000010   -0.00000013   -0.00000000
     atom  218 type  1   force =     0.00000001   -0.00000000    0.00000000
     atom  219 type  1   force =    -0.00000001   -0.00000002    0.00000001
     atom  220 type  2   force =     0.00000004   -0.00000016   -0.00000008
     atom  221 type  1   force =    -0.00000001   -0.00000003   -0.00000000
     atom  222 type  1   force =    -0.00000001   -0.00000001   -0.00000000
     atom  223 type  2   force =    -0.00000006   -0.00000004    0.00000004
     atom  224 type  1   force =     0.00000000   -0.00000000   -0.00000001
     atom  225 type  1   force =     0.00000002   -0.00000001    0.00000002
     atom  226 type  2   force =     0.00000012    0.00000001    0.00000002
     atom  227 type  1   force =     0.00000002    0.00000001    0.00000003
     atom  228 type  1   force =    -0.00000001   -0.00000002    0.00000001

     Total force =     0.647501     Total SCF correction =     0.000002

     Writing output data file ./008.save/
 
     init_run     :      8.44s CPU      3.13s WALL (       1 calls)
     electrons    :    249.16s CPU     67.01s WALL (       1 calls)
     forces       :      5.02s CPU      1.51s WALL (       1 calls)

     Called by init_run:
     wfcinit      :      4.28s CPU      1.16s WALL (       1 calls)
     wfcinit:atom :      0.06s CPU      0.02s WALL (       1 calls)
     wfcinit:wfcr :      3.94s CPU      1.05s WALL (       1 calls)
     potinit      :      0.92s CPU      0.27s WALL (       1 calls)
     hinit0       :      0.86s CPU      0.23s WALL (       1 calls)

     Called by electrons:
     c_bands      :    187.08s CPU     48.84s WALL (      21 calls)
     sum_band     :     36.44s CPU     10.53s WALL (      21 calls)
     v_of_rho     :      9.95s CPU      2.66s WALL (      22 calls)
     v_h          :      1.01s CPU      0.27s WALL (      22 calls)
     v_xc         :      9.31s CPU      2.49s WALL (      23 calls)
     newd         :      8.87s CPU      3.17s WALL (      22 calls)
     PAW_pot      :      2.90s CPU      0.74s WALL (      22 calls)
     mix_rho      :      2.56s CPU      0.67s WALL (      21 calls)

     Called by c_bands:
     init_us_2    :      1.20s CPU      0.32s WALL (      43 calls)
     regterg      :    184.31s CPU     48.14s WALL (      21 calls)

     Called by sum_band:
     sum_band:wei :      0.00s CPU      0.00s WALL (      21 calls)
     sum_band:loo :     28.09s CPU      7.30s WALL (      21 calls)
     sum_band:buf :      0.00s CPU      0.00s WALL (      21 calls)
     sum_band:ini :      0.58s CPU      0.15s WALL (      21 calls)
     sum_band:cal :      3.01s CPU      0.76s WALL (      21 calls)
     sum_band:bec :      0.10s CPU      0.03s WALL (      21 calls)
     addusdens    :      6.86s CPU      2.84s WALL (      21 calls)
     addusd:skk   :      3.42s CPU      1.64s WALL (      42 calls)
     addusd:dgemm :      1.92s CPU      0.76s WALL (      42 calls)
     addusd:qvan2 :      1.07s CPU      0.27s WALL (      42 calls)

     Called by *egterg:
     rdiaghg      :     18.50s CPU      4.74s WALL (      82 calls)
     regterg:over :      7.09s CPU      1.81s WALL (      61 calls)
     regterg:upda :      4.45s CPU      1.24s WALL (      61 calls)
     regterg:last :     10.63s CPU      2.69s WALL (      51 calls)
     rdiaghg:chol :      0.61s CPU      0.16s WALL (      82 calls)
     rdiaghg:inve :      0.36s CPU      0.09s WALL (      82 calls)
     rdiaghg:para :      1.67s CPU      0.44s WALL (     164 calls)
     h_psi        :    135.29s CPU     35.46s WALL (      83 calls)
     s_psi        :      6.88s CPU      1.74s WALL (      83 calls)
     g_psi        :      0.26s CPU      0.06s WALL (      61 calls)

     Called by h_psi:
     h_psi:calbec :      7.89s CPU      2.03s WALL (      83 calls)
     vloc_psi     :    119.93s CPU     31.53s WALL (      83 calls)
     vloc_psi:tg_ :      2.93s CPU      0.75s WALL (      83 calls)
     add_vuspsi   :      7.01s CPU      1.78s WALL (      83 calls)

     General routines
     calbec       :     12.00s CPU      3.09s WALL (     108 calls)
     fft          :      8.88s CPU      2.37s WALL (     249 calls)
     ffts         :      0.61s CPU      0.17s WALL (      43 calls)
     fftw         :    108.39s CPU     28.61s WALL (    2731 calls)
     interpolate  :      1.30s CPU      0.35s WALL (      22 calls)
 
     Parallel routines
     fft_scatt_xy :     23.53s CPU      6.11s WALL (    3023 calls)
     fft_scatt_yz :     40.27s CPU     10.67s WALL (    3023 calls)
     fft_scatt_tg :      8.94s CPU      2.82s WALL (    2731 calls)

     PAW routines
     PAW_pot      :      2.90s CPU      0.74s WALL (      22 calls)
 
     PWSCF        :   4m25.10s CPU   1m14.02s WALL

 
   This run was terminated on:   9:20: 8  26Jun2021            

=------------------------------------------------------------------------------=
   JOB DONE.
=------------------------------------------------------------------------------=
