
     Program PWSCF v.6.8 starts on 29Sep2021 at 15:40:18 

     This program is part of the open-source Quantum ESPRESSO suite
     for quantum simulation of materials; please cite
         "P. Giannozzi et al., J. Phys.:Condens. Matter 21 395502 (2009);
         "P. Giannozzi et al., J. Phys.:Condens. Matter 29 465901 (2017);
         "P. Giannozzi et al., J. Chem. Phys. 152 154105 (2020);
          URL http://www.quantum-espresso.org", 
     in publications or presentations arising from this work. More details at
     http://www.quantum-espresso.org/quote

     Parallel version (MPI & OpenMP), running on     128 processor cores
     Number of MPI processes:                16
     Threads/MPI process:                     8

     MPI processes distributed on     4 nodes
     R & G space division:  proc/nbgrp/npool/nimage =      16
     279733 MiB available memory on the printing compute node when the environment starts
 
     Reading input from input_quarzo_288
Warning: card &CELL ignored
Warning: card / ignored

     Current dimensions of program PWSCF are:
     Max number of different atomic species (ntypx) = 10
     Max number of k-points (npk) =  40000
     Max angular momentum in pseudopotentials (lmaxx) =  4
     Found symmetry operation: I + (  0.0000  0.5000  0.0000)
     This is a supercell, fractional translations are disabled

     Subspace diagonalization in iterative solution of the eigenvalue problem:
     a serial algorithm will be used

 
     Parallelization info
     --------------------
     sticks:   dense  smooth     PW     G-vecs:    dense   smooth      PW
     Min         949     475    121               147451    52143    6836
     Max         950     476    122               147458    52150    6842
     Sum       15199    7603   1951              2359315   834327  109425
 
     Using Slab Decomposition
 

     Title: 
     'srtio_bulk'                                                               


     bravais-lattice index     =            8
     lattice parameter (alat)  =      18.5722  a.u.
     unit-cell volume          =   24408.6485 (a.u.)^3
     number of atoms/cell      =          288
     number of atomic types    =            2
     number of electrons       =      1536.00
     number of Kohn-Sham states=          922
     kinetic-energy cutoff     =      40.0000  Ry
     charge density cutoff     =     320.0000  Ry
     scf convergence threshold =      1.0E-10
     mixing beta               =       0.7000
     number of iterations used =            8  plain     mixing
     Exchange-correlation= PBESOL
                           (   1   4  10   8   0   0   0)

     GPU acceleration is ACTIVE.


     GPU used by master process:

        Device Number: 0
        Device name: Tesla V100-SXM2-16GB
        Compute capability : 70
        Ratio of single to double precision performance  : 2
        Memory Clock Rate (KHz): 877000
        Memory Bus Width (bits): 4096
        Peak Memory Bandwidth (GB/s): 898.05

     celldm(1)=  18.572236  celldm(2)=   1.732051  celldm(3)=   2.199837
     celldm(4)=   0.000000  celldm(5)=   0.000000  celldm(6)=   0.000000

     crystal axes: (cart. coord. in units of alat)
               a(1) = (   1.000000   0.000000   0.000000 )  
               a(2) = (   0.000000   1.732051   0.000000 )  
               a(3) = (   0.000000   0.000000   2.199837 )  

     reciprocal axes: (cart. coord. in units 2 pi/alat)
               b(1) = (  1.000000  0.000000  0.000000 )  
               b(2) = (  0.000000  0.577350  0.000000 )  
               b(3) = (  0.000000  0.000000  0.454579 )  


     PseudoPot. # 1 for Si read from file:
     ./Si.pbesol-n-rrkjus_psl.0.1.UPF
     MD5 check sum: 84986bd6be9e79932892c86d18f23292
     Pseudo is Ultrasoft + core correction, Zval =  4.0
     Generated using "atomic" code by A. Dal Corso  v.5.0.2 svn rev. 9415
     Using radial grid of 1141 points,  4 beta functions with: 
                l(1) =   0
                l(2) =   0
                l(3) =   1
                l(4) =   1
     Q(r) pseudized with 0 coefficients 


     PseudoPot. # 2 for O  read from file:
     ./O.pbesol-n-rrkjus_psl.0.1.UPF
     MD5 check sum: 860b55360c6eac1e4db712ce01d51bd8
     Pseudo is Ultrasoft + core correction, Zval =  6.0
     Generated using "atomic" code by A. Dal Corso  v.5.0.2 svn rev. 9415
     Using radial grid of 1095 points,  4 beta functions with: 
                l(1) =   0
                l(2) =   0
                l(3) =   1
                l(4) =   1
     Q(r) pseudized with 0 coefficients 


     atomic species   valence    mass     pseudopotential
        Si             4.00    47.86700     Si( 1.00)
        O              6.00    15.99940     O ( 1.00)

      2 Sym. Ops. (no inversion) found


                                    s                        frac. trans.

      isym =  1     identity                                     

 cryst.   s( 1) = (     1          0          0      )
                  (     0          1          0      )
                  (     0          0          1      )

 cart.    s( 1) = (  1.0000000  0.0000000  0.0000000 )
                  (  0.0000000  1.0000000  0.0000000 )
                  (  0.0000000  0.0000000  1.0000000 )


      isym =  2     180 deg rotation - cart. axis [1,0,0]        

 cryst.   s( 2) = (     1          0          0      )
                  (     0         -1          0      )
                  (     0          0         -1      )

 cart.    s( 2) = (  1.0000000  0.0000000  0.0000000 )
                  (  0.0000000 -1.0000000  0.0000000 )
                  (  0.0000000  0.0000000 -1.0000000 )


     point group C_2  (2)   
     there are  2 classes
     the character table:

       E     C2   
A      1.00  1.00
B      1.00 -1.00

     the symmetry operations in each class and the name of the first element:

     E        1
          identity                                               
     C2       2
          180 deg rotation - cart. axis [1,0,0]                  

   Cartesian axes

     site n.     atom                  positions (alat units)
         1           Si  tau(   1) = (   0.2345674   0.0000000   0.0000000  )
         2           Si  tau(   2) = (   0.2345674   0.8660254   0.0000000  )
         3           Si  tau(   3) = (   0.7345674   0.0000000   0.0000000  )
         4           Si  tau(   4) = (   0.7345674   0.8660254   0.0000000  )
         5           Si  tau(   5) = (   0.4845674   0.4330127   0.0000000  )
         6           Si  tau(   6) = (   0.4845674   1.2990381   0.0000000  )
         7           Si  tau(   7) = (   0.9845674   0.4330127   0.0000000  )
         8           Si  tau(   8) = (   0.9845674   1.2990381   0.0000000  )
         9           O   tau(   9) = (   0.1393135   0.7487106   0.0636252  )
        10           O   tau(  10) = (   0.1393135   1.6147360   0.0636252  )
        11           O   tau(  11) = (   0.6393135   0.7487106   0.0636252  )
        12           O   tau(  12) = (   0.6393135   1.6147360   0.0636252  )
        13           O   tau(  13) = (   0.3893135   0.3156979   0.0636252  )
        14           O   tau(  14) = (   0.3893135   1.1817233   0.0636252  )
        15           O   tau(  15) = (   0.8893135   0.3156979   0.0636252  )
        16           O   tau(  16) = (   0.8893135   1.1817233   0.0636252  )
        17           O   tau(  17) = (   0.3287456   0.0619916   0.1196945  )
        18           O   tau(  18) = (   0.3287456   0.9280170   0.1196945  )
        19           O   tau(  19) = (   0.8287456   0.0619916   0.1196945  )
        20           O   tau(  20) = (   0.8287456   0.9280170   0.1196945  )
        21           O   tau(  21) = (   0.0787456   0.4950043   0.1196945  )
        22           O   tau(  22) = (   0.0787456   1.3610297   0.1196945  )
        23           O   tau(  23) = (   0.5787456   0.4950043   0.1196945  )
        24           O   tau(  24) = (   0.5787456   1.3610297   0.1196945  )
        25           Si  tau(  25) = (   0.3827163   0.2031413   0.1833198  )
        26           Si  tau(  26) = (   0.3827163   1.0691667   0.1833198  )
        27           Si  tau(  27) = (   0.8827163   0.2031413   0.1833198  )
        28           Si  tau(  28) = (   0.8827163   1.0691667   0.1833198  )
        29           Si  tau(  29) = (   0.1327163   0.6361540   0.1833198  )
        30           Si  tau(  30) = (   0.1327163   1.5021794   0.1833198  )
        31           Si  tau(  31) = (   0.6327163   0.6361540   0.1833198  )
        32           Si  tau(  32) = (   0.6327163   1.5021794   0.1833198  )
        33           O   tau(  33) = (   0.0319409   0.1793064   0.2469450  )
        34           O   tau(  34) = (   0.0319409   1.0453318   0.2469450  )
        35           O   tau(  35) = (   0.5319409   0.1793064   0.2469450  )
        36           O   tau(  36) = (   0.5319409   1.0453318   0.2469450  )
        37           O   tau(  37) = (   0.2819409   0.6123191   0.2469450  )
        38           O   tau(  38) = (   0.2819409   1.4783445   0.2469450  )
        39           O   tau(  39) = (   0.7819409   0.6123191   0.2469450  )
        40           O   tau(  40) = (   0.7819409   1.4783445   0.2469450  )
        41           O   tau(  41) = (   0.0319409   0.6867190   0.3030143  )
        42           O   tau(  42) = (   0.0319409   1.5527444   0.3030143  )
        43           O   tau(  43) = (   0.5319409   0.6867190   0.3030143  )
        44           O   tau(  44) = (   0.5319409   1.5527444   0.3030143  )
        45           O   tau(  45) = (   0.2819409   0.2537063   0.3030143  )
        46           O   tau(  46) = (   0.2819409   1.1197317   0.3030143  )
        47           O   tau(  47) = (   0.7819409   0.2537063   0.3030143  )
        48           O   tau(  48) = (   0.7819409   1.1197317   0.3030143  )
        49           Si  tau(  49) = (   0.3827163   0.6628841   0.3666395  )
        50           Si  tau(  50) = (   0.3827163   1.5289095   0.3666395  )
        51           Si  tau(  51) = (   0.8827163   0.6628841   0.3666395  )
        52           Si  tau(  52) = (   0.8827163   1.5289095   0.3666395  )
        53           Si  tau(  53) = (   0.1327163   0.2298714   0.3666395  )
        54           Si  tau(  54) = (   0.1327163   1.0958968   0.3666395  )
        55           Si  tau(  55) = (   0.6327163   0.2298714   0.3666395  )
        56           Si  tau(  56) = (   0.6327163   1.0958968   0.3666395  )
        57           O   tau(  57) = (   0.3287456   0.8040338   0.4302648  )
        58           O   tau(  58) = (   0.3287456   1.6700592   0.4302648  )
        59           O   tau(  59) = (   0.8287456   0.8040338   0.4302648  )
        60           O   tau(  60) = (   0.8287456   1.6700592   0.4302648  )
        61           O   tau(  61) = (   0.0787456   0.3710211   0.4302648  )
        62           O   tau(  62) = (   0.0787456   1.2370465   0.4302648  )
        63           O   tau(  63) = (   0.5787456   0.3710211   0.4302648  )
        64           O   tau(  64) = (   0.5787456   1.2370465   0.4302648  )
        65           O   tau(  65) = (   0.1393135   0.1173148   0.4863341  )
        66           O   tau(  66) = (   0.1393135   0.9833403   0.4863341  )
        67           O   tau(  67) = (   0.6393135   0.1173148   0.4863341  )
        68           O   tau(  68) = (   0.6393135   0.9833403   0.4863341  )
        69           O   tau(  69) = (   0.3893135   0.5503275   0.4863341  )
        70           O   tau(  70) = (   0.3893135   1.4163530   0.4863341  )
        71           O   tau(  71) = (   0.8893135   0.5503275   0.4863341  )
        72           O   tau(  72) = (   0.8893135   1.4163530   0.4863341  )
        73           Si  tau(  73) = (   0.2345674   0.0000000   0.5499593  )
        74           Si  tau(  74) = (   0.2345674   0.8660254   0.5499593  )
        75           Si  tau(  75) = (   0.7345674   0.0000000   0.5499593  )
        76           Si  tau(  76) = (   0.7345674   0.8660254   0.5499593  )
        77           Si  tau(  77) = (   0.4845674   0.4330127   0.5499593  )
        78           Si  tau(  78) = (   0.4845674   1.2990381   0.5499593  )
        79           Si  tau(  79) = (   0.9845674   0.4330127   0.5499593  )
        80           Si  tau(  80) = (   0.9845674   1.2990381   0.5499593  )
        81           O   tau(  81) = (   0.1393135   0.7487106   0.6135845  )
        82           O   tau(  82) = (   0.1393135   1.6147360   0.6135845  )
        83           O   tau(  83) = (   0.6393135   0.7487106   0.6135845  )
        84           O   tau(  84) = (   0.6393135   1.6147360   0.6135845  )
        85           O   tau(  85) = (   0.3893135   0.3156979   0.6135845  )
        86           O   tau(  86) = (   0.3893135   1.1817233   0.6135845  )
        87           O   tau(  87) = (   0.8893135   0.3156979   0.6135845  )
        88           O   tau(  88) = (   0.8893135   1.1817233   0.6135845  )
        89           O   tau(  89) = (   0.3287456   0.0619916   0.6696538  )
        90           O   tau(  90) = (   0.3287456   0.9280170   0.6696538  )
        91           O   tau(  91) = (   0.8287456   0.0619916   0.6696538  )
        92           O   tau(  92) = (   0.8287456   0.9280170   0.6696538  )
        93           O   tau(  93) = (   0.0787456   0.4950043   0.6696538  )
        94           O   tau(  94) = (   0.0787456   1.3610297   0.6696538  )
        95           O   tau(  95) = (   0.5787456   0.4950043   0.6696538  )
        96           O   tau(  96) = (   0.5787456   1.3610297   0.6696538  )
        97           Si  tau(  97) = (   0.3827163   0.2031413   0.7332791  )
        98           Si  tau(  98) = (   0.3827163   1.0691667   0.7332791  )
        99           Si  tau(  99) = (   0.8827163   0.2031413   0.7332791  )
       100           Si  tau( 100) = (   0.8827163   1.0691667   0.7332791  )
       101           Si  tau( 101) = (   0.1327163   0.6361540   0.7332791  )
       102           Si  tau( 102) = (   0.1327163   1.5021794   0.7332791  )
       103           Si  tau( 103) = (   0.6327163   0.6361540   0.7332791  )
       104           Si  tau( 104) = (   0.6327163   1.5021794   0.7332791  )
       105           O   tau( 105) = (   0.0319409   0.1793064   0.7969043  )
       106           O   tau( 106) = (   0.0319409   1.0453318   0.7969043  )
       107           O   tau( 107) = (   0.5319409   0.1793064   0.7969043  )
       108           O   tau( 108) = (   0.5319409   1.0453318   0.7969043  )
       109           O   tau( 109) = (   0.2819409   0.6123191   0.7969043  )
       110           O   tau( 110) = (   0.2819409   1.4783445   0.7969043  )
       111           O   tau( 111) = (   0.7819409   0.6123191   0.7969043  )
       112           O   tau( 112) = (   0.7819409   1.4783445   0.7969043  )
       113           O   tau( 113) = (   0.0319409   0.6867190   0.8529736  )
       114           O   tau( 114) = (   0.0319409   1.5527444   0.8529736  )
       115           O   tau( 115) = (   0.5319409   0.6867190   0.8529736  )
       116           O   tau( 116) = (   0.5319409   1.5527444   0.8529736  )
       117           O   tau( 117) = (   0.2819409   0.2537063   0.8529736  )
       118           O   tau( 118) = (   0.2819409   1.1197317   0.8529736  )
       119           O   tau( 119) = (   0.7819409   0.2537063   0.8529736  )
       120           O   tau( 120) = (   0.7819409   1.1197317   0.8529736  )
       121           Si  tau( 121) = (   0.3827163   0.6628841   0.9165988  )
       122           Si  tau( 122) = (   0.3827163   1.5289095   0.9165988  )
       123           Si  tau( 123) = (   0.8827163   0.6628841   0.9165988  )
       124           Si  tau( 124) = (   0.8827163   1.5289095   0.9165988  )
       125           Si  tau( 125) = (   0.1327163   0.2298714   0.9165988  )
       126           Si  tau( 126) = (   0.1327163   1.0958968   0.9165988  )
       127           Si  tau( 127) = (   0.6327163   0.2298714   0.9165988  )
       128           Si  tau( 128) = (   0.6327163   1.0958968   0.9165988  )
       129           O   tau( 129) = (   0.3287456   0.8040338   0.9802241  )
       130           O   tau( 130) = (   0.3287456   1.6700592   0.9802241  )
       131           O   tau( 131) = (   0.8287456   0.8040338   0.9802241  )
       132           O   tau( 132) = (   0.8287456   1.6700592   0.9802241  )
       133           O   tau( 133) = (   0.0787456   0.3710211   0.9802241  )
       134           O   tau( 134) = (   0.0787456   1.2370465   0.9802241  )
       135           O   tau( 135) = (   0.5787456   0.3710211   0.9802241  )
       136           O   tau( 136) = (   0.5787456   1.2370465   0.9802241  )
       137           O   tau( 137) = (   0.1393135   0.1173148   1.0362934  )
       138           O   tau( 138) = (   0.1393135   0.9833403   1.0362934  )
       139           O   tau( 139) = (   0.6393135   0.1173148   1.0362934  )
       140           O   tau( 140) = (   0.6393135   0.9833403   1.0362934  )
       141           O   tau( 141) = (   0.3893135   0.5503275   1.0362934  )
       142           O   tau( 142) = (   0.3893135   1.4163530   1.0362934  )
       143           O   tau( 143) = (   0.8893135   0.5503275   1.0362934  )
       144           O   tau( 144) = (   0.8893135   1.4163530   1.0362934  )
       145           Si  tau( 145) = (   0.2345674   0.0000000   1.0999186  )
       146           Si  tau( 146) = (   0.2345674   0.8660254   1.0999186  )
       147           Si  tau( 147) = (   0.7345674   0.0000000   1.0999186  )
       148           Si  tau( 148) = (   0.7345674   0.8660254   1.0999186  )
       149           Si  tau( 149) = (   0.4845674   0.4330127   1.0999186  )
       150           Si  tau( 150) = (   0.4845674   1.2990381   1.0999186  )
       151           Si  tau( 151) = (   0.9845674   0.4330127   1.0999186  )
       152           Si  tau( 152) = (   0.9845674   1.2990381   1.0999186  )
       153           O   tau( 153) = (   0.1393135   0.7487106   1.1635438  )
       154           O   tau( 154) = (   0.1393135   1.6147360   1.1635438  )
       155           O   tau( 155) = (   0.6393135   0.7487106   1.1635438  )
       156           O   tau( 156) = (   0.6393135   1.6147360   1.1635438  )
       157           O   tau( 157) = (   0.3893135   0.3156979   1.1635438  )
       158           O   tau( 158) = (   0.3893135   1.1817233   1.1635438  )
       159           O   tau( 159) = (   0.8893135   0.3156979   1.1635438  )
       160           O   tau( 160) = (   0.8893135   1.1817233   1.1635438  )
       161           O   tau( 161) = (   0.3287456   0.0619916   1.2196131  )
       162           O   tau( 162) = (   0.3287456   0.9280170   1.2196131  )
       163           O   tau( 163) = (   0.8287456   0.0619916   1.2196131  )
       164           O   tau( 164) = (   0.8287456   0.9280170   1.2196131  )
       165           O   tau( 165) = (   0.0787456   0.4950043   1.2196131  )
       166           O   tau( 166) = (   0.0787456   1.3610297   1.2196131  )
       167           O   tau( 167) = (   0.5787456   0.4950043   1.2196131  )
       168           O   tau( 168) = (   0.5787456   1.3610297   1.2196131  )
       169           Si  tau( 169) = (   0.3827163   0.2031413   1.2832384  )
       170           Si  tau( 170) = (   0.3827163   1.0691667   1.2832384  )
       171           Si  tau( 171) = (   0.8827163   0.2031413   1.2832384  )
       172           Si  tau( 172) = (   0.8827163   1.0691667   1.2832384  )
       173           Si  tau( 173) = (   0.1327163   0.6361540   1.2832384  )
       174           Si  tau( 174) = (   0.1327163   1.5021794   1.2832384  )
       175           Si  tau( 175) = (   0.6327163   0.6361540   1.2832384  )
       176           Si  tau( 176) = (   0.6327163   1.5021794   1.2832384  )
       177           O   tau( 177) = (   0.0319409   0.1793064   1.3468636  )
       178           O   tau( 178) = (   0.0319409   1.0453318   1.3468636  )
       179           O   tau( 179) = (   0.5319409   0.1793064   1.3468636  )
       180           O   tau( 180) = (   0.5319409   1.0453318   1.3468636  )
       181           O   tau( 181) = (   0.2819409   0.6123191   1.3468636  )
       182           O   tau( 182) = (   0.2819409   1.4783445   1.3468636  )
       183           O   tau( 183) = (   0.7819409   0.6123191   1.3468636  )
       184           O   tau( 184) = (   0.7819409   1.4783445   1.3468636  )
       185           O   tau( 185) = (   0.0319409   0.6867190   1.4029329  )
       186           O   tau( 186) = (   0.0319409   1.5527444   1.4029329  )
       187           O   tau( 187) = (   0.5319409   0.6867190   1.4029329  )
       188           O   tau( 188) = (   0.5319409   1.5527444   1.4029329  )
       189           O   tau( 189) = (   0.2819409   0.2537063   1.4029329  )
       190           O   tau( 190) = (   0.2819409   1.1197317   1.4029329  )
       191           O   tau( 191) = (   0.7819409   0.2537063   1.4029329  )
       192           O   tau( 192) = (   0.7819409   1.1197317   1.4029329  )
       193           Si  tau( 193) = (   0.3827163   0.6628841   1.4665581  )
       194           Si  tau( 194) = (   0.3827163   1.5289095   1.4665581  )
       195           Si  tau( 195) = (   0.8827163   0.6628841   1.4665581  )
       196           Si  tau( 196) = (   0.8827163   1.5289095   1.4665581  )
       197           Si  tau( 197) = (   0.1327163   0.2298714   1.4665581  )
       198           Si  tau( 198) = (   0.1327163   1.0958968   1.4665581  )
       199           Si  tau( 199) = (   0.6327163   0.2298714   1.4665581  )
       200           Si  tau( 200) = (   0.6327163   1.0958968   1.4665581  )
       201           O   tau( 201) = (   0.3287456   0.8040338   1.5301834  )
       202           O   tau( 202) = (   0.3287456   1.6700592   1.5301834  )
       203           O   tau( 203) = (   0.8287456   0.8040338   1.5301834  )
       204           O   tau( 204) = (   0.8287456   1.6700592   1.5301834  )
       205           O   tau( 205) = (   0.0787456   0.3710211   1.5301834  )
       206           O   tau( 206) = (   0.0787456   1.2370465   1.5301834  )
       207           O   tau( 207) = (   0.5787456   0.3710211   1.5301834  )
       208           O   tau( 208) = (   0.5787456   1.2370465   1.5301834  )
       209           O   tau( 209) = (   0.1393135   0.1173148   1.5862527  )
       210           O   tau( 210) = (   0.1393135   0.9833403   1.5862527  )
       211           O   tau( 211) = (   0.6393135   0.1173148   1.5862527  )
       212           O   tau( 212) = (   0.6393135   0.9833403   1.5862527  )
       213           O   tau( 213) = (   0.3893135   0.5503275   1.5862527  )
       214           O   tau( 214) = (   0.3893135   1.4163530   1.5862527  )
       215           O   tau( 215) = (   0.8893135   0.5503275   1.5862527  )
       216           O   tau( 216) = (   0.8893135   1.4163530   1.5862527  )
       217           Si  tau( 217) = (   0.2345674   0.0000000   1.6498779  )
       218           Si  tau( 218) = (   0.2345674   0.8660254   1.6498779  )
       219           Si  tau( 219) = (   0.7345674   0.0000000   1.6498779  )
       220           Si  tau( 220) = (   0.7345674   0.8660254   1.6498779  )
       221           Si  tau( 221) = (   0.4845674   0.4330127   1.6498779  )
       222           Si  tau( 222) = (   0.4845674   1.2990381   1.6498779  )
       223           Si  tau( 223) = (   0.9845674   0.4330127   1.6498779  )
       224           Si  tau( 224) = (   0.9845674   1.2990381   1.6498779  )
       225           O   tau( 225) = (   0.1393135   0.7487106   1.7135031  )
       226           O   tau( 226) = (   0.1393135   1.6147360   1.7135031  )
       227           O   tau( 227) = (   0.6393135   0.7487106   1.7135031  )
       228           O   tau( 228) = (   0.6393135   1.6147360   1.7135031  )
       229           O   tau( 229) = (   0.3893135   0.3156979   1.7135031  )
       230           O   tau( 230) = (   0.3893135   1.1817233   1.7135031  )
       231           O   tau( 231) = (   0.8893135   0.3156979   1.7135031  )
       232           O   tau( 232) = (   0.8893135   1.1817233   1.7135031  )
       233           O   tau( 233) = (   0.3287456   0.0619916   1.7695724  )
       234           O   tau( 234) = (   0.3287456   0.9280170   1.7695724  )
       235           O   tau( 235) = (   0.8287456   0.0619916   1.7695724  )
       236           O   tau( 236) = (   0.8287456   0.9280170   1.7695724  )
       237           O   tau( 237) = (   0.0787456   0.4950043   1.7695724  )
       238           O   tau( 238) = (   0.0787456   1.3610297   1.7695724  )
       239           O   tau( 239) = (   0.5787456   0.4950043   1.7695724  )
       240           O   tau( 240) = (   0.5787456   1.3610297   1.7695724  )
       241           Si  tau( 241) = (   0.3827163   0.2031413   1.8331977  )
       242           Si  tau( 242) = (   0.3827163   1.0691667   1.8331977  )
       243           Si  tau( 243) = (   0.8827163   0.2031413   1.8331977  )
       244           Si  tau( 244) = (   0.8827163   1.0691667   1.8331977  )
       245           Si  tau( 245) = (   0.1327163   0.6361540   1.8331977  )
       246           Si  tau( 246) = (   0.1327163   1.5021794   1.8331977  )
       247           Si  tau( 247) = (   0.6327163   0.6361540   1.8331977  )
       248           Si  tau( 248) = (   0.6327163   1.5021794   1.8331977  )
       249           O   tau( 249) = (   0.0319409   0.1793064   1.8968229  )
       250           O   tau( 250) = (   0.0319409   1.0453318   1.8968229  )
       251           O   tau( 251) = (   0.5319409   0.1793064   1.8968229  )
       252           O   tau( 252) = (   0.5319409   1.0453318   1.8968229  )
       253           O   tau( 253) = (   0.2819409   0.6123191   1.8968229  )
       254           O   tau( 254) = (   0.2819409   1.4783445   1.8968229  )
       255           O   tau( 255) = (   0.7819409   0.6123191   1.8968229  )
       256           O   tau( 256) = (   0.7819409   1.4783445   1.8968229  )
       257           O   tau( 257) = (   0.0319409   0.6867190   1.9528922  )
       258           O   tau( 258) = (   0.0319409   1.5527444   1.9528922  )
       259           O   tau( 259) = (   0.5319409   0.6867190   1.9528922  )
       260           O   tau( 260) = (   0.5319409   1.5527444   1.9528922  )
       261           O   tau( 261) = (   0.2819409   0.2537063   1.9528922  )
       262           O   tau( 262) = (   0.2819409   1.1197317   1.9528922  )
       263           O   tau( 263) = (   0.7819409   0.2537063   1.9528922  )
       264           O   tau( 264) = (   0.7819409   1.1197317   1.9528922  )
       265           Si  tau( 265) = (   0.3827163   0.6628841   2.0165174  )
       266           Si  tau( 266) = (   0.3827163   1.5289095   2.0165174  )
       267           Si  tau( 267) = (   0.8827163   0.6628841   2.0165174  )
       268           Si  tau( 268) = (   0.8827163   1.5289095   2.0165174  )
       269           Si  tau( 269) = (   0.1327163   0.2298714   2.0165174  )
       270           Si  tau( 270) = (   0.1327163   1.0958968   2.0165174  )
       271           Si  tau( 271) = (   0.6327163   0.2298714   2.0165174  )
       272           Si  tau( 272) = (   0.6327163   1.0958968   2.0165174  )
       273           O   tau( 273) = (   0.3287456   0.8040338   2.0801427  )
       274           O   tau( 274) = (   0.3287456   1.6700592   2.0801427  )
       275           O   tau( 275) = (   0.8287456   0.8040338   2.0801427  )
       276           O   tau( 276) = (   0.8287456   1.6700592   2.0801427  )
       277           O   tau( 277) = (   0.0787456   0.3710211   2.0801427  )
       278           O   tau( 278) = (   0.0787456   1.2370465   2.0801427  )
       279           O   tau( 279) = (   0.5787456   0.3710211   2.0801427  )
       280           O   tau( 280) = (   0.5787456   1.2370465   2.0801427  )
       281           O   tau( 281) = (   0.1393135   0.1173148   2.1362120  )
       282           O   tau( 282) = (   0.1393135   0.9833403   2.1362120  )
       283           O   tau( 283) = (   0.6393135   0.1173148   2.1362120  )
       284           O   tau( 284) = (   0.6393135   0.9833403   2.1362120  )
       285           O   tau( 285) = (   0.3893135   0.5503275   2.1362120  )
       286           O   tau( 286) = (   0.3893135   1.4163530   2.1362120  )
       287           O   tau( 287) = (   0.8893135   0.5503275   2.1362120  )
       288           O   tau( 288) = (   0.8893135   1.4163530   2.1362120  )

   Crystallographic axes

     site n.     atom                  positions (cryst. coord.)
         1           Si  tau(   1) = (  0.2345674  0.0000000  0.0000000  )
         2           Si  tau(   2) = (  0.2345674  0.5000000  0.0000000  )
         3           Si  tau(   3) = (  0.7345674  0.0000000  0.0000000  )
         4           Si  tau(   4) = (  0.7345674  0.5000000  0.0000000  )
         5           Si  tau(   5) = (  0.4845674  0.2500000  0.0000000  )
         6           Si  tau(   6) = (  0.4845674  0.7500000  0.0000000  )
         7           Si  tau(   7) = (  0.9845674  0.2500000  0.0000000  )
         8           Si  tau(   8) = (  0.9845674  0.7500000  0.0000000  )
         9           O   tau(   9) = (  0.1393135  0.4322683  0.0289227  )
        10           O   tau(  10) = (  0.1393135  0.9322683  0.0289227  )
        11           O   tau(  11) = (  0.6393135  0.4322683  0.0289227  )
        12           O   tau(  12) = (  0.6393135  0.9322683  0.0289227  )
        13           O   tau(  13) = (  0.3893135  0.1822683  0.0289227  )
        14           O   tau(  14) = (  0.3893135  0.6822683  0.0289227  )
        15           O   tau(  15) = (  0.8893135  0.1822683  0.0289227  )
        16           O   tau(  16) = (  0.8893135  0.6822683  0.0289227  )
        17           O   tau(  17) = (  0.3287456  0.0357909  0.0544106  )
        18           O   tau(  18) = (  0.3287456  0.5357909  0.0544106  )
        19           O   tau(  19) = (  0.8287456  0.0357909  0.0544106  )
        20           O   tau(  20) = (  0.8287456  0.5357909  0.0544106  )
        21           O   tau(  21) = (  0.0787456  0.2857909  0.0544106  )
        22           O   tau(  22) = (  0.0787456  0.7857909  0.0544106  )
        23           O   tau(  23) = (  0.5787456  0.2857909  0.0544106  )
        24           O   tau(  24) = (  0.5787456  0.7857909  0.0544106  )
        25           Si  tau(  25) = (  0.3827163  0.1172837  0.0833333  )
        26           Si  tau(  26) = (  0.3827163  0.6172837  0.0833333  )
        27           Si  tau(  27) = (  0.8827163  0.1172837  0.0833333  )
        28           Si  tau(  28) = (  0.8827163  0.6172837  0.0833333  )
        29           Si  tau(  29) = (  0.1327163  0.3672837  0.0833333  )
        30           Si  tau(  30) = (  0.1327163  0.8672837  0.0833333  )
        31           Si  tau(  31) = (  0.6327163  0.3672837  0.0833333  )
        32           Si  tau(  32) = (  0.6327163  0.8672837  0.0833333  )
        33           O   tau(  33) = (  0.0319409  0.1035226  0.1122560  )
        34           O   tau(  34) = (  0.0319409  0.6035226  0.1122560  )
        35           O   tau(  35) = (  0.5319409  0.1035226  0.1122560  )
        36           O   tau(  36) = (  0.5319409  0.6035226  0.1122560  )
        37           O   tau(  37) = (  0.2819409  0.3535226  0.1122560  )
        38           O   tau(  38) = (  0.2819409  0.8535226  0.1122560  )
        39           O   tau(  39) = (  0.7819409  0.3535226  0.1122560  )
        40           O   tau(  40) = (  0.7819409  0.8535226  0.1122560  )
        41           O   tau(  41) = (  0.0319409  0.3964774  0.1377440  )
        42           O   tau(  42) = (  0.0319409  0.8964774  0.1377440  )
        43           O   tau(  43) = (  0.5319409  0.3964774  0.1377440  )
        44           O   tau(  44) = (  0.5319409  0.8964774  0.1377440  )
        45           O   tau(  45) = (  0.2819409  0.1464774  0.1377440  )
        46           O   tau(  46) = (  0.2819409  0.6464774  0.1377440  )
        47           O   tau(  47) = (  0.7819409  0.1464774  0.1377440  )
        48           O   tau(  48) = (  0.7819409  0.6464774  0.1377440  )
        49           Si  tau(  49) = (  0.3827163  0.3827163  0.1666667  )
        50           Si  tau(  50) = (  0.3827163  0.8827163  0.1666667  )
        51           Si  tau(  51) = (  0.8827163  0.3827163  0.1666667  )
        52           Si  tau(  52) = (  0.8827163  0.8827163  0.1666667  )
        53           Si  tau(  53) = (  0.1327163  0.1327163  0.1666667  )
        54           Si  tau(  54) = (  0.1327163  0.6327163  0.1666667  )
        55           Si  tau(  55) = (  0.6327163  0.1327163  0.1666667  )
        56           Si  tau(  56) = (  0.6327163  0.6327163  0.1666667  )
        57           O   tau(  57) = (  0.3287456  0.4642091  0.1955894  )
        58           O   tau(  58) = (  0.3287456  0.9642091  0.1955894  )
        59           O   tau(  59) = (  0.8287456  0.4642091  0.1955894  )
        60           O   tau(  60) = (  0.8287456  0.9642091  0.1955894  )
        61           O   tau(  61) = (  0.0787456  0.2142091  0.1955894  )
        62           O   tau(  62) = (  0.0787456  0.7142091  0.1955894  )
        63           O   tau(  63) = (  0.5787456  0.2142091  0.1955894  )
        64           O   tau(  64) = (  0.5787456  0.7142091  0.1955894  )
        65           O   tau(  65) = (  0.1393135  0.0677317  0.2210773  )
        66           O   tau(  66) = (  0.1393135  0.5677318  0.2210773  )
        67           O   tau(  67) = (  0.6393135  0.0677317  0.2210773  )
        68           O   tau(  68) = (  0.6393135  0.5677318  0.2210773  )
        69           O   tau(  69) = (  0.3893135  0.3177317  0.2210773  )
        70           O   tau(  70) = (  0.3893135  0.8177318  0.2210773  )
        71           O   tau(  71) = (  0.8893135  0.3177317  0.2210773  )
        72           O   tau(  72) = (  0.8893135  0.8177318  0.2210773  )
        73           Si  tau(  73) = (  0.2345674  0.0000000  0.2500000  )
        74           Si  tau(  74) = (  0.2345674  0.5000000  0.2500000  )
        75           Si  tau(  75) = (  0.7345674  0.0000000  0.2500000  )
        76           Si  tau(  76) = (  0.7345674  0.5000000  0.2500000  )
        77           Si  tau(  77) = (  0.4845674  0.2500000  0.2500000  )
        78           Si  tau(  78) = (  0.4845674  0.7500000  0.2500000  )
        79           Si  tau(  79) = (  0.9845674  0.2500000  0.2500000  )
        80           Si  tau(  80) = (  0.9845674  0.7500000  0.2500000  )
        81           O   tau(  81) = (  0.1393135  0.4322683  0.2789227  )
        82           O   tau(  82) = (  0.1393135  0.9322683  0.2789227  )
        83           O   tau(  83) = (  0.6393135  0.4322683  0.2789227  )
        84           O   tau(  84) = (  0.6393135  0.9322683  0.2789227  )
        85           O   tau(  85) = (  0.3893135  0.1822683  0.2789227  )
        86           O   tau(  86) = (  0.3893135  0.6822683  0.2789227  )
        87           O   tau(  87) = (  0.8893135  0.1822683  0.2789227  )
        88           O   tau(  88) = (  0.8893135  0.6822683  0.2789227  )
        89           O   tau(  89) = (  0.3287456  0.0357909  0.3044106  )
        90           O   tau(  90) = (  0.3287456  0.5357909  0.3044106  )
        91           O   tau(  91) = (  0.8287456  0.0357909  0.3044106  )
        92           O   tau(  92) = (  0.8287456  0.5357909  0.3044106  )
        93           O   tau(  93) = (  0.0787456  0.2857909  0.3044106  )
        94           O   tau(  94) = (  0.0787456  0.7857909  0.3044106  )
        95           O   tau(  95) = (  0.5787456  0.2857909  0.3044106  )
        96           O   tau(  96) = (  0.5787456  0.7857909  0.3044106  )
        97           Si  tau(  97) = (  0.3827163  0.1172837  0.3333333  )
        98           Si  tau(  98) = (  0.3827163  0.6172837  0.3333333  )
        99           Si  tau(  99) = (  0.8827163  0.1172837  0.3333333  )
       100           Si  tau( 100) = (  0.8827163  0.6172837  0.3333333  )
       101           Si  tau( 101) = (  0.1327163  0.3672837  0.3333333  )
       102           Si  tau( 102) = (  0.1327163  0.8672837  0.3333333  )
       103           Si  tau( 103) = (  0.6327163  0.3672837  0.3333333  )
       104           Si  tau( 104) = (  0.6327163  0.8672837  0.3333333  )
       105           O   tau( 105) = (  0.0319409  0.1035226  0.3622560  )
       106           O   tau( 106) = (  0.0319409  0.6035226  0.3622560  )
       107           O   tau( 107) = (  0.5319409  0.1035226  0.3622560  )
       108           O   tau( 108) = (  0.5319409  0.6035226  0.3622560  )
       109           O   tau( 109) = (  0.2819409  0.3535226  0.3622560  )
       110           O   tau( 110) = (  0.2819409  0.8535226  0.3622560  )
       111           O   tau( 111) = (  0.7819409  0.3535226  0.3622560  )
       112           O   tau( 112) = (  0.7819409  0.8535226  0.3622560  )
       113           O   tau( 113) = (  0.0319409  0.3964774  0.3877440  )
       114           O   tau( 114) = (  0.0319409  0.8964774  0.3877440  )
       115           O   tau( 115) = (  0.5319409  0.3964774  0.3877440  )
       116           O   tau( 116) = (  0.5319409  0.8964774  0.3877440  )
       117           O   tau( 117) = (  0.2819409  0.1464774  0.3877440  )
       118           O   tau( 118) = (  0.2819409  0.6464774  0.3877440  )
       119           O   tau( 119) = (  0.7819409  0.1464774  0.3877440  )
       120           O   tau( 120) = (  0.7819409  0.6464774  0.3877440  )
       121           Si  tau( 121) = (  0.3827163  0.3827163  0.4166667  )
       122           Si  tau( 122) = (  0.3827163  0.8827163  0.4166667  )
       123           Si  tau( 123) = (  0.8827163  0.3827163  0.4166667  )
       124           Si  tau( 124) = (  0.8827163  0.8827163  0.4166667  )
       125           Si  tau( 125) = (  0.1327163  0.1327163  0.4166667  )
       126           Si  tau( 126) = (  0.1327163  0.6327163  0.4166667  )
       127           Si  tau( 127) = (  0.6327163  0.1327163  0.4166667  )
       128           Si  tau( 128) = (  0.6327163  0.6327163  0.4166667  )
       129           O   tau( 129) = (  0.3287456  0.4642091  0.4455894  )
       130           O   tau( 130) = (  0.3287456  0.9642091  0.4455894  )
       131           O   tau( 131) = (  0.8287456  0.4642091  0.4455894  )
       132           O   tau( 132) = (  0.8287456  0.9642091  0.4455894  )
       133           O   tau( 133) = (  0.0787456  0.2142091  0.4455894  )
       134           O   tau( 134) = (  0.0787456  0.7142091  0.4455894  )
       135           O   tau( 135) = (  0.5787456  0.2142091  0.4455894  )
       136           O   tau( 136) = (  0.5787456  0.7142091  0.4455894  )
       137           O   tau( 137) = (  0.1393135  0.0677317  0.4710773  )
       138           O   tau( 138) = (  0.1393135  0.5677318  0.4710773  )
       139           O   tau( 139) = (  0.6393135  0.0677317  0.4710773  )
       140           O   tau( 140) = (  0.6393135  0.5677318  0.4710773  )
       141           O   tau( 141) = (  0.3893135  0.3177317  0.4710773  )
       142           O   tau( 142) = (  0.3893135  0.8177318  0.4710773  )
       143           O   tau( 143) = (  0.8893135  0.3177317  0.4710773  )
       144           O   tau( 144) = (  0.8893135  0.8177318  0.4710773  )
       145           Si  tau( 145) = (  0.2345674  0.0000000  0.5000000  )
       146           Si  tau( 146) = (  0.2345674  0.5000000  0.5000000  )
       147           Si  tau( 147) = (  0.7345674  0.0000000  0.5000000  )
       148           Si  tau( 148) = (  0.7345674  0.5000000  0.5000000  )
       149           Si  tau( 149) = (  0.4845674  0.2500000  0.5000000  )
       150           Si  tau( 150) = (  0.4845674  0.7500000  0.5000000  )
       151           Si  tau( 151) = (  0.9845674  0.2500000  0.5000000  )
       152           Si  tau( 152) = (  0.9845674  0.7500000  0.5000000  )
       153           O   tau( 153) = (  0.1393135  0.4322683  0.5289227  )
       154           O   tau( 154) = (  0.1393135  0.9322683  0.5289227  )
       155           O   tau( 155) = (  0.6393135  0.4322683  0.5289227  )
       156           O   tau( 156) = (  0.6393135  0.9322683  0.5289227  )
       157           O   tau( 157) = (  0.3893135  0.1822683  0.5289227  )
       158           O   tau( 158) = (  0.3893135  0.6822683  0.5289227  )
       159           O   tau( 159) = (  0.8893135  0.1822683  0.5289227  )
       160           O   tau( 160) = (  0.8893135  0.6822683  0.5289227  )
       161           O   tau( 161) = (  0.3287456  0.0357909  0.5544106  )
       162           O   tau( 162) = (  0.3287456  0.5357909  0.5544106  )
       163           O   tau( 163) = (  0.8287456  0.0357909  0.5544106  )
       164           O   tau( 164) = (  0.8287456  0.5357909  0.5544106  )
       165           O   tau( 165) = (  0.0787456  0.2857909  0.5544106  )
       166           O   tau( 166) = (  0.0787456  0.7857909  0.5544106  )
       167           O   tau( 167) = (  0.5787456  0.2857909  0.5544106  )
       168           O   tau( 168) = (  0.5787456  0.7857909  0.5544106  )
       169           Si  tau( 169) = (  0.3827163  0.1172837  0.5833333  )
       170           Si  tau( 170) = (  0.3827163  0.6172837  0.5833333  )
       171           Si  tau( 171) = (  0.8827163  0.1172837  0.5833333  )
       172           Si  tau( 172) = (  0.8827163  0.6172837  0.5833333  )
       173           Si  tau( 173) = (  0.1327163  0.3672837  0.5833333  )
       174           Si  tau( 174) = (  0.1327163  0.8672837  0.5833333  )
       175           Si  tau( 175) = (  0.6327163  0.3672837  0.5833333  )
       176           Si  tau( 176) = (  0.6327163  0.8672837  0.5833333  )
       177           O   tau( 177) = (  0.0319409  0.1035226  0.6122560  )
       178           O   tau( 178) = (  0.0319409  0.6035226  0.6122560  )
       179           O   tau( 179) = (  0.5319409  0.1035226  0.6122560  )
       180           O   tau( 180) = (  0.5319409  0.6035226  0.6122560  )
       181           O   tau( 181) = (  0.2819409  0.3535226  0.6122560  )
       182           O   tau( 182) = (  0.2819409  0.8535226  0.6122560  )
       183           O   tau( 183) = (  0.7819409  0.3535226  0.6122560  )
       184           O   tau( 184) = (  0.7819409  0.8535226  0.6122560  )
       185           O   tau( 185) = (  0.0319409  0.3964774  0.6377440  )
       186           O   tau( 186) = (  0.0319409  0.8964774  0.6377440  )
       187           O   tau( 187) = (  0.5319409  0.3964774  0.6377440  )
       188           O   tau( 188) = (  0.5319409  0.8964774  0.6377440  )
       189           O   tau( 189) = (  0.2819409  0.1464774  0.6377440  )
       190           O   tau( 190) = (  0.2819409  0.6464774  0.6377440  )
       191           O   tau( 191) = (  0.7819409  0.1464774  0.6377440  )
       192           O   tau( 192) = (  0.7819409  0.6464774  0.6377440  )
       193           Si  tau( 193) = (  0.3827163  0.3827163  0.6666667  )
       194           Si  tau( 194) = (  0.3827163  0.8827163  0.6666667  )
       195           Si  tau( 195) = (  0.8827163  0.3827163  0.6666667  )
       196           Si  tau( 196) = (  0.8827163  0.8827163  0.6666667  )
       197           Si  tau( 197) = (  0.1327163  0.1327163  0.6666667  )
       198           Si  tau( 198) = (  0.1327163  0.6327163  0.6666667  )
       199           Si  tau( 199) = (  0.6327163  0.1327163  0.6666667  )
       200           Si  tau( 200) = (  0.6327163  0.6327163  0.6666667  )
       201           O   tau( 201) = (  0.3287456  0.4642091  0.6955894  )
       202           O   tau( 202) = (  0.3287456  0.9642091  0.6955894  )
       203           O   tau( 203) = (  0.8287456  0.4642091  0.6955894  )
       204           O   tau( 204) = (  0.8287456  0.9642091  0.6955894  )
       205           O   tau( 205) = (  0.0787456  0.2142091  0.6955894  )
       206           O   tau( 206) = (  0.0787456  0.7142091  0.6955894  )
       207           O   tau( 207) = (  0.5787456  0.2142091  0.6955894  )
       208           O   tau( 208) = (  0.5787456  0.7142091  0.6955894  )
       209           O   tau( 209) = (  0.1393135  0.0677317  0.7210773  )
       210           O   tau( 210) = (  0.1393135  0.5677318  0.7210773  )
       211           O   tau( 211) = (  0.6393135  0.0677317  0.7210773  )
       212           O   tau( 212) = (  0.6393135  0.5677318  0.7210773  )
       213           O   tau( 213) = (  0.3893135  0.3177317  0.7210773  )
       214           O   tau( 214) = (  0.3893135  0.8177318  0.7210773  )
       215           O   tau( 215) = (  0.8893135  0.3177317  0.7210773  )
       216           O   tau( 216) = (  0.8893135  0.8177318  0.7210773  )
       217           Si  tau( 217) = (  0.2345674  0.0000000  0.7500000  )
       218           Si  tau( 218) = (  0.2345674  0.5000000  0.7500000  )
       219           Si  tau( 219) = (  0.7345674  0.0000000  0.7500000  )
       220           Si  tau( 220) = (  0.7345674  0.5000000  0.7500000  )
       221           Si  tau( 221) = (  0.4845674  0.2500000  0.7500000  )
       222           Si  tau( 222) = (  0.4845674  0.7500000  0.7500000  )
       223           Si  tau( 223) = (  0.9845674  0.2500000  0.7500000  )
       224           Si  tau( 224) = (  0.9845674  0.7500000  0.7500000  )
       225           O   tau( 225) = (  0.1393135  0.4322683  0.7789227  )
       226           O   tau( 226) = (  0.1393135  0.9322683  0.7789227  )
       227           O   tau( 227) = (  0.6393135  0.4322683  0.7789227  )
       228           O   tau( 228) = (  0.6393135  0.9322683  0.7789227  )
       229           O   tau( 229) = (  0.3893135  0.1822683  0.7789227  )
       230           O   tau( 230) = (  0.3893135  0.6822683  0.7789227  )
       231           O   tau( 231) = (  0.8893135  0.1822683  0.7789227  )
       232           O   tau( 232) = (  0.8893135  0.6822683  0.7789227  )
       233           O   tau( 233) = (  0.3287456  0.0357909  0.8044106  )
       234           O   tau( 234) = (  0.3287456  0.5357909  0.8044106  )
       235           O   tau( 235) = (  0.8287456  0.0357909  0.8044106  )
       236           O   tau( 236) = (  0.8287456  0.5357909  0.8044106  )
       237           O   tau( 237) = (  0.0787456  0.2857909  0.8044106  )
       238           O   tau( 238) = (  0.0787456  0.7857909  0.8044106  )
       239           O   tau( 239) = (  0.5787456  0.2857909  0.8044106  )
       240           O   tau( 240) = (  0.5787456  0.7857909  0.8044106  )
       241           Si  tau( 241) = (  0.3827163  0.1172837  0.8333333  )
       242           Si  tau( 242) = (  0.3827163  0.6172837  0.8333333  )
       243           Si  tau( 243) = (  0.8827163  0.1172837  0.8333333  )
       244           Si  tau( 244) = (  0.8827163  0.6172837  0.8333333  )
       245           Si  tau( 245) = (  0.1327163  0.3672837  0.8333333  )
       246           Si  tau( 246) = (  0.1327163  0.8672837  0.8333333  )
       247           Si  tau( 247) = (  0.6327163  0.3672837  0.8333333  )
       248           Si  tau( 248) = (  0.6327163  0.8672837  0.8333333  )
       249           O   tau( 249) = (  0.0319409  0.1035226  0.8622560  )
       250           O   tau( 250) = (  0.0319409  0.6035226  0.8622560  )
       251           O   tau( 251) = (  0.5319409  0.1035226  0.8622560  )
       252           O   tau( 252) = (  0.5319409  0.6035226  0.8622560  )
       253           O   tau( 253) = (  0.2819409  0.3535226  0.8622560  )
       254           O   tau( 254) = (  0.2819409  0.8535226  0.8622560  )
       255           O   tau( 255) = (  0.7819409  0.3535226  0.8622560  )
       256           O   tau( 256) = (  0.7819409  0.8535226  0.8622560  )
       257           O   tau( 257) = (  0.0319409  0.3964774  0.8877440  )
       258           O   tau( 258) = (  0.0319409  0.8964774  0.8877440  )
       259           O   tau( 259) = (  0.5319409  0.3964774  0.8877440  )
       260           O   tau( 260) = (  0.5319409  0.8964774  0.8877440  )
       261           O   tau( 261) = (  0.2819409  0.1464774  0.8877440  )
       262           O   tau( 262) = (  0.2819409  0.6464774  0.8877440  )
       263           O   tau( 263) = (  0.7819409  0.1464774  0.8877440  )
       264           O   tau( 264) = (  0.7819409  0.6464774  0.8877440  )
       265           Si  tau( 265) = (  0.3827163  0.3827163  0.9166667  )
       266           Si  tau( 266) = (  0.3827163  0.8827163  0.9166667  )
       267           Si  tau( 267) = (  0.8827163  0.3827163  0.9166667  )
       268           Si  tau( 268) = (  0.8827163  0.8827163  0.9166667  )
       269           Si  tau( 269) = (  0.1327163  0.1327163  0.9166667  )
       270           Si  tau( 270) = (  0.1327163  0.6327163  0.9166667  )
       271           Si  tau( 271) = (  0.6327163  0.1327163  0.9166667  )
       272           Si  tau( 272) = (  0.6327163  0.6327163  0.9166667  )
       273           O   tau( 273) = (  0.3287456  0.4642091  0.9455894  )
       274           O   tau( 274) = (  0.3287456  0.9642091  0.9455894  )
       275           O   tau( 275) = (  0.8287456  0.4642091  0.9455894  )
       276           O   tau( 276) = (  0.8287456  0.9642091  0.9455894  )
       277           O   tau( 277) = (  0.0787456  0.2142091  0.9455894  )
       278           O   tau( 278) = (  0.0787456  0.7142091  0.9455894  )
       279           O   tau( 279) = (  0.5787456  0.2142091  0.9455894  )
       280           O   tau( 280) = (  0.5787456  0.7142091  0.9455894  )
       281           O   tau( 281) = (  0.1393135  0.0677317  0.9710773  )
       282           O   tau( 282) = (  0.1393135  0.5677318  0.9710773  )
       283           O   tau( 283) = (  0.6393135  0.0677317  0.9710773  )
       284           O   tau( 284) = (  0.6393135  0.5677318  0.9710773  )
       285           O   tau( 285) = (  0.3893135  0.3177317  0.9710773  )
       286           O   tau( 286) = (  0.3893135  0.8177318  0.9710773  )
       287           O   tau( 287) = (  0.8893135  0.3177317  0.9710773  )
       288           O   tau( 288) = (  0.8893135  0.8177318  0.9710773  )

     number of k points=     2  Marzari-Vanderbilt smearing, width (Ry)=  0.0100
                       cart. coord. in units 2pi/alat
        k(    1) = (   0.2500000   0.1443376   0.1136448), wk =   1.0000000
        k(    2) = (  -0.2500000   0.1443376  -0.1136448), wk =   1.0000000

                       cryst. coord.
        k(    1) = (   0.2500000   0.2500000   0.2500000), wk =   1.0000000
        k(    2) = (  -0.2500000   0.2500000  -0.2500000), wk =   1.0000000

     Dense  grid:  2359315 G-vectors     FFT dimensions: ( 108, 192, 240)

     Smooth grid:   834327 G-vectors     FFT dimensions: (  75, 135, 180)

     Dynamical RAM for                 wfc:      91.69 MB

     Dynamical RAM for     wfc (w. buffer):     275.06 MB

     Dynamical RAM for           str. fact:       4.50 MB

     Dynamical RAM for           local pot:       0.00 MB

     Dynamical RAM for          nlocal pot:     229.11 MB

     Dynamical RAM for                qrad:       0.82 MB

     Dynamical RAM for          rho,v,vnew:      13.87 MB

     Dynamical RAM for               rhoin:       4.62 MB

     Dynamical RAM for            rho*nmix:      36.00 MB

     Dynamical RAM for           G-vectors:       8.84 MB

     Dynamical RAM for          h,s,v(r/c):     155.66 MB

     Dynamical RAM for          <psi|beta>:      32.41 MB

     Dynamical RAM for                 psi:     183.37 MB

     Dynamical RAM for                hpsi:     183.37 MB

     Dynamical RAM for                spsi:     183.37 MB

     Dynamical RAM for      wfcinit/wfcrot:     259.50 MB

     Dynamical RAM for           addusdens:     528.76 MB

     Dynamical RAM for          addusforce:    1389.55 MB

     Estimated static dynamical RAM per process >     555.43 MB

     Estimated max dynamical RAM per process >       1.93 GB

     Estimated total dynamical RAM >      30.95 GB

     Check: negative core charge=   -0.000035

     Initial potential from superposition of free atoms

     starting charge 1535.94785, renormalised to 1536.00000
     Starting wfcs are 1152 randomized atomic wfcs

     total cpu time spent up to now is        7.8 secs

     per-process dynamical memory:  1254.0 Mb

     Self-consistent Calculation
[tb_dev] Currently allocated     1.23E+02 Mbytes, locked:    0 /  11
[tb_pin] Currently allocated     0.00E+00 Mbytes, locked:    0 /   0

     iteration #  1     ecut=    40.00 Ry     beta= 0.70
     Davidson diagonalization with overlap

---- Real-time Memory Report at c_bands before calling an iterative solver
          1621 MiB given to the printing process from OS
          1224 MiB allocation reported by mallinfo(arena+hblkhd)
        273246 MiB available memory on the node where the printing process lives
     GPU memory used/free/total (MiB): 1166 / 14994 / 16160
------------------
     ethr =  1.00E-02,  avg # of iterations =  3.0

     total cpu time spent up to now is       14.4 secs

     total energy              =   -7532.00790636 Ry
     estimated scf accuracy    <      68.99445159 Ry
[tb_dev] Currently allocated     1.00E+03 Mbytes, locked:    0 /  16
[tb_pin] Currently allocated     5.19E+01 Mbytes, locked:    0 /   1

     iteration #  2     ecut=    40.00 Ry     beta= 0.70
     Davidson diagonalization with overlap

---- Real-time Memory Report at c_bands before calling an iterative solver
          1744 MiB given to the printing process from OS
          1239 MiB allocation reported by mallinfo(arena+hblkhd)
        269474 MiB available memory on the node where the printing process lives
     GPU memory used/free/total (MiB): 2086 / 14074 / 16160
------------------
     ethr =  4.49E-03,  avg # of iterations =  2.0

     total cpu time spent up to now is       20.3 secs

     total energy              =   -7555.13485493 Ry
     estimated scf accuracy    <      36.72333518 Ry
[tb_dev] Currently allocated     1.00E+03 Mbytes, locked:    0 /  16
[tb_pin] Currently allocated     5.19E+01 Mbytes, locked:    0 /   1

     iteration #  3     ecut=    40.00 Ry     beta= 0.70
     Davidson diagonalization with overlap

---- Real-time Memory Report at c_bands before calling an iterative solver
          1758 MiB given to the printing process from OS
          1264 MiB allocation reported by mallinfo(arena+hblkhd)
        269407 MiB available memory on the node where the printing process lives
     GPU memory used/free/total (MiB): 2086 / 14074 / 16160
------------------
     ethr =  2.39E-03,  avg # of iterations =  2.0

     total cpu time spent up to now is       25.5 secs

     total energy              =   -7560.13854410 Ry
     estimated scf accuracy    <       0.74616497 Ry
[tb_dev] Currently allocated     1.00E+03 Mbytes, locked:    0 /  16
[tb_pin] Currently allocated     5.19E+01 Mbytes, locked:    0 /   1

     iteration #  4     ecut=    40.00 Ry     beta= 0.70
     Davidson diagonalization with overlap

---- Real-time Memory Report at c_bands before calling an iterative solver
          1758 MiB given to the printing process from OS
          1265 MiB allocation reported by mallinfo(arena+hblkhd)
        269374 MiB available memory on the node where the printing process lives
     GPU memory used/free/total (MiB): 2086 / 14074 / 16160
------------------
     c_bands:  3 eigenvalues not converged
     c_bands:  1 eigenvalues not converged
     ethr =  4.86E-05,  avg # of iterations = 20.0

     total cpu time spent up to now is       38.7 secs

     total energy              =   -7560.65805521 Ry
     estimated scf accuracy    <       0.61068496 Ry
[tb_dev] Currently allocated     1.00E+03 Mbytes, locked:    0 /  16
[tb_pin] Currently allocated     5.19E+01 Mbytes, locked:    0 /   1

     iteration #  5     ecut=    40.00 Ry     beta= 0.70
     Davidson diagonalization with overlap

---- Real-time Memory Report at c_bands before calling an iterative solver
          1761 MiB given to the printing process from OS
          1266 MiB allocation reported by mallinfo(arena+hblkhd)
        269366 MiB available memory on the node where the printing process lives
     GPU memory used/free/total (MiB): 2086 / 14074 / 16160
------------------
     ethr =  3.98E-05,  avg # of iterations =  2.0

     total cpu time spent up to now is       43.3 secs

     total energy              =   -7560.65777422 Ry
     estimated scf accuracy    <       0.10657575 Ry
[tb_dev] Currently allocated     1.00E+03 Mbytes, locked:    0 /  16
[tb_pin] Currently allocated     5.19E+01 Mbytes, locked:    0 /   1

     iteration #  6     ecut=    40.00 Ry     beta= 0.70
     Davidson diagonalization with overlap

---- Real-time Memory Report at c_bands before calling an iterative solver
          1791 MiB given to the printing process from OS
          1269 MiB allocation reported by mallinfo(arena+hblkhd)
        269363 MiB available memory on the node where the printing process lives
     GPU memory used/free/total (MiB): 2086 / 14074 / 16160
------------------
     c_bands:  3 eigenvalues not converged
     c_bands:  2 eigenvalues not converged
     ethr =  6.94E-06,  avg # of iterations = 20.0

     total cpu time spent up to now is       56.1 secs

     total energy              =   -7560.67982793 Ry
     estimated scf accuracy    <       0.00399992 Ry
[tb_dev] Currently allocated     1.00E+03 Mbytes, locked:    0 /  16
[tb_pin] Currently allocated     5.19E+01 Mbytes, locked:    0 /   1

     iteration #  7     ecut=    40.00 Ry     beta= 0.70
     Davidson diagonalization with overlap

---- Real-time Memory Report at c_bands before calling an iterative solver
          1793 MiB given to the printing process from OS
          1289 MiB allocation reported by mallinfo(arena+hblkhd)
        269331 MiB available memory on the node where the printing process lives
     GPU memory used/free/total (MiB): 2086 / 14074 / 16160
------------------
     c_bands:  1 eigenvalues not converged
     ethr =  2.60E-07,  avg # of iterations = 13.0

     total cpu time spent up to now is       64.9 secs

     total energy              =   -7560.68150341 Ry
     estimated scf accuracy    <       0.00043611 Ry
[tb_dev] Currently allocated     1.00E+03 Mbytes, locked:    0 /  16
[tb_pin] Currently allocated     5.19E+01 Mbytes, locked:    0 /   1

     iteration #  8     ecut=    40.00 Ry     beta= 0.70
     Davidson diagonalization with overlap

---- Real-time Memory Report at c_bands before calling an iterative solver
          1793 MiB given to the printing process from OS
          1289 MiB allocation reported by mallinfo(arena+hblkhd)
        269302 MiB available memory on the node where the printing process lives
     GPU memory used/free/total (MiB): 2086 / 14074 / 16160
------------------
     ethr =  2.84E-08,  avg # of iterations =  5.0

     total cpu time spent up to now is       70.3 secs

     total energy              =   -7560.68145266 Ry
     estimated scf accuracy    <       0.00024768 Ry
[tb_dev] Currently allocated     1.00E+03 Mbytes, locked:    0 /  16
[tb_pin] Currently allocated     5.19E+01 Mbytes, locked:    0 /   1

     iteration #  9     ecut=    40.00 Ry     beta= 0.70
     Davidson diagonalization with overlap

---- Real-time Memory Report at c_bands before calling an iterative solver
          1793 MiB given to the printing process from OS
          1289 MiB allocation reported by mallinfo(arena+hblkhd)
        269297 MiB available memory on the node where the printing process lives
     GPU memory used/free/total (MiB): 2086 / 14074 / 16160
------------------
     ethr =  1.61E-08,  avg # of iterations =  2.0

     total cpu time spent up to now is       75.0 secs

     total energy              =   -7560.68145526 Ry
     estimated scf accuracy    <       0.00004904 Ry
[tb_dev] Currently allocated     1.00E+03 Mbytes, locked:    0 /  16
[tb_pin] Currently allocated     5.19E+01 Mbytes, locked:    0 /   1

     iteration # 10     ecut=    40.00 Ry     beta= 0.70
     Davidson diagonalization with overlap

---- Real-time Memory Report at c_bands before calling an iterative solver
          1815 MiB given to the printing process from OS
          1289 MiB allocation reported by mallinfo(arena+hblkhd)
        269294 MiB available memory on the node where the printing process lives
     GPU memory used/free/total (MiB): 2086 / 14074 / 16160
------------------
     ethr =  3.19E-09,  avg # of iterations =  4.0

     total cpu time spent up to now is       81.1 secs

     total energy              =   -7560.68146697 Ry
     estimated scf accuracy    <       0.00000264 Ry
[tb_dev] Currently allocated     1.00E+03 Mbytes, locked:    0 /  16
[tb_pin] Currently allocated     5.19E+01 Mbytes, locked:    0 /   1

     iteration # 11     ecut=    40.00 Ry     beta= 0.70
     Davidson diagonalization with overlap

---- Real-time Memory Report at c_bands before calling an iterative solver
          1815 MiB given to the printing process from OS
          1289 MiB allocation reported by mallinfo(arena+hblkhd)
        269276 MiB available memory on the node where the printing process lives
     GPU memory used/free/total (MiB): 2086 / 14074 / 16160
------------------
     ethr =  1.72E-10,  avg # of iterations =  5.0

     total cpu time spent up to now is       88.7 secs

     total energy              =   -7560.68146841 Ry
     estimated scf accuracy    <       0.00000022 Ry
[tb_dev] Currently allocated     1.00E+03 Mbytes, locked:    0 /  16
[tb_pin] Currently allocated     5.19E+01 Mbytes, locked:    0 /   1

     iteration # 12     ecut=    40.00 Ry     beta= 0.70
     Davidson diagonalization with overlap

---- Real-time Memory Report at c_bands before calling an iterative solver
          1815 MiB given to the printing process from OS
          1289 MiB allocation reported by mallinfo(arena+hblkhd)
        269281 MiB available memory on the node where the printing process lives
     GPU memory used/free/total (MiB): 2086 / 14074 / 16160
------------------
     ethr =  1.45E-11,  avg # of iterations =  3.0

     total cpu time spent up to now is       94.2 secs

     total energy              =   -7560.68146843 Ry
     estimated scf accuracy    <       0.00000006 Ry
[tb_dev] Currently allocated     1.00E+03 Mbytes, locked:    0 /  16
[tb_pin] Currently allocated     5.19E+01 Mbytes, locked:    0 /   1

     iteration # 13     ecut=    40.00 Ry     beta= 0.70
     Davidson diagonalization with overlap

---- Real-time Memory Report at c_bands before calling an iterative solver
          1815 MiB given to the printing process from OS
          1289 MiB allocation reported by mallinfo(arena+hblkhd)
        269284 MiB available memory on the node where the printing process lives
     GPU memory used/free/total (MiB): 2086 / 14074 / 16160
------------------
     ethr =  3.97E-12,  avg # of iterations =  1.5

     total cpu time spent up to now is       98.7 secs

     total energy              =   -7560.68146842 Ry
     estimated scf accuracy    <       0.00000004 Ry
[tb_dev] Currently allocated     1.00E+03 Mbytes, locked:    0 /  16
[tb_pin] Currently allocated     5.19E+01 Mbytes, locked:    0 /   1

     iteration # 14     ecut=    40.00 Ry     beta= 0.70
     Davidson diagonalization with overlap

---- Real-time Memory Report at c_bands before calling an iterative solver
          1815 MiB given to the printing process from OS
          1289 MiB allocation reported by mallinfo(arena+hblkhd)
        269281 MiB available memory on the node where the printing process lives
     GPU memory used/free/total (MiB): 2086 / 14074 / 16160
------------------
     ethr =  2.87E-12,  avg # of iterations =  2.0

     total cpu time spent up to now is      103.4 secs

     total energy              =   -7560.68146842 Ry
     estimated scf accuracy    <       0.00000001 Ry
[tb_dev] Currently allocated     1.00E+03 Mbytes, locked:    0 /  16
[tb_pin] Currently allocated     5.19E+01 Mbytes, locked:    0 /   1

     iteration # 15     ecut=    40.00 Ry     beta= 0.70
     Davidson diagonalization with overlap

---- Real-time Memory Report at c_bands before calling an iterative solver
          1815 MiB given to the printing process from OS
          1289 MiB allocation reported by mallinfo(arena+hblkhd)
        269284 MiB available memory on the node where the printing process lives
     GPU memory used/free/total (MiB): 2086 / 14074 / 16160
------------------
     ethr =  8.00E-13,  avg # of iterations =  3.0

     total cpu time spent up to now is      108.9 secs

     total energy              =   -7560.68146842 Ry
     estimated scf accuracy    <          2.2E-09 Ry
[tb_dev] Currently allocated     1.00E+03 Mbytes, locked:    0 /  16
[tb_pin] Currently allocated     5.19E+01 Mbytes, locked:    0 /   1

     iteration # 16     ecut=    40.00 Ry     beta= 0.70
     Davidson diagonalization with overlap

---- Real-time Memory Report at c_bands before calling an iterative solver
          1816 MiB given to the printing process from OS
          1289 MiB allocation reported by mallinfo(arena+hblkhd)
        269285 MiB available memory on the node where the printing process lives
     GPU memory used/free/total (MiB): 2086 / 14074 / 16160
------------------
     ethr =  1.43E-13,  avg # of iterations =  4.0

     total cpu time spent up to now is      115.6 secs

     End of self-consistent calculation

          k = 0.2500 0.1443 0.1136 (104283 PWs)   bands (ev):

   -16.8582 -16.7979 -16.7683 -16.7126 -16.6808 -16.6046 -16.6041 -16.6034
   -16.5603 -16.5583 -16.5372 -16.5115 -16.5027 -16.4790 -16.4758 -16.4559
   -16.4310 -16.4191 -16.4190 -16.3959 -16.3959 -16.3858 -16.3829 -16.3712
   -16.3674 -16.3674 -16.3393 -16.3393 -16.3152 -16.3077 -16.2958 -16.2926
   -16.2762 -16.2342 -16.1013 -16.0960 -16.0563 -16.0493 -16.0253 -16.0206
   -15.9938 -15.9752 -15.9647 -15.9586 -15.9233 -15.9232 -15.9208 -15.9207
   -15.9178 -15.9178 -15.9096 -15.9096 -15.8964 -15.8446 -15.8333 -15.8211
   -15.8054 -15.7993 -15.7894 -15.7863 -15.7290 -15.7222 -15.5746 -15.5612
   -15.5185 -15.4722 -15.4215 -15.4215 -15.4052 -15.4052 -15.3914 -15.3501
   -15.3501 -15.3470 -15.3313 -15.3312 -15.3300 -15.3255 -15.3198 -15.3103
   -15.2995 -15.2861 -15.2824 -15.2764 -15.2638 -15.2623 -15.2248 -15.2070
   -15.1852 -15.1782 -15.1394 -15.0468 -15.0137 -14.9448 -14.8956 -14.8130
   -14.8077 -14.8076 -14.8013 -14.7977 -14.7936 -14.7912 -14.7911 -14.7894
   -14.7853 -14.7829 -14.7829 -14.7823 -14.7798 -14.7798 -14.7796 -14.7792
   -14.7784 -14.7764 -14.7741 -14.7723 -14.7719 -14.7706 -14.7702 -14.7664
   -14.7652 -14.7599 -14.7563 -14.7560 -14.7528 -14.7527 -14.7501 -14.7477
   -14.7431 -14.7431 -14.7425 -14.7423 -14.7423 -14.7399 -14.7399 -14.7389
   -14.7387 -14.7378 -14.7365 -14.7365 -14.7334 -14.7325 -14.7319 -14.7312
   -14.7311 -14.7301 -14.7293 -14.7285 -14.7285 -14.7232 -14.7230 -14.7207
   -14.7198 -14.7190 -14.7172 -14.7168 -14.7131 -14.7126 -14.7125 -14.7122
   -14.7103 -14.7098 -14.7082 -14.7081 -14.7074 -14.7068 -14.7060 -14.7059
   -14.7039 -14.7038 -14.7038 -14.7037 -14.7037 -14.7002 -14.6997 -14.6981
   -14.6975 -14.6973 -14.6969 -14.6961 -14.6938 -14.6937 -14.6931 -14.6906
   -14.6854 -14.6822 -14.6808 -14.6789 -14.6782 -14.6703 -14.6656 -14.6605
    -6.7213  -6.5827  -6.5063  -6.3939  -6.3172  -6.1803  -6.1388  -6.1380
    -6.0879  -6.0862  -6.0087  -5.9959  -5.9937  -5.9819  -5.9520  -5.9503
    -5.9410  -5.9212  -5.9211  -5.9074  -5.9039  -5.9031  -5.8974  -5.8780
    -5.8778  -5.8514  -5.8151  -5.8149  -5.7653  -5.7652  -5.6748  -5.4869
    -5.4822  -5.3781  -5.1166  -5.1163  -5.0527  -5.0042  -4.9946  -4.9791
    -4.9322  -4.9311  -4.9276  -4.8456  -4.8454  -4.8209  -4.8209  -4.7918
    -4.7916  -4.7820  -4.7698  -4.7697  -4.7398  -4.6807  -4.6775  -4.6049
    -4.5973  -4.5772  -4.5172  -4.5127  -4.4695  -4.4666  -4.2090  -4.0745
    -4.0481  -4.0400  -4.0171  -3.9890  -3.9536  -3.9534  -3.9087  -3.9052
    -3.8788  -3.8649  -3.8648  -3.8050  -3.7465  -3.7443  -3.7413  -3.7252
    -3.7250  -3.6974  -3.6000  -3.6000  -3.5677  -3.5465  -3.5436  -3.5421
    -3.4302  -3.3697  -3.3665  -3.3502  -3.3460  -3.2183  -3.1360  -3.0656
    -3.0425  -3.0250  -3.0173  -2.9736  -2.9726  -2.9705  -2.9689  -2.9659
    -2.9621  -2.9600  -2.9493  -2.9463  -2.9462  -2.9433  -2.9432  -2.9345
    -2.9283  -2.9280  -2.9270  -2.9269  -2.9203  -2.9185  -2.9163  -2.9118
    -2.9043  -2.9037  -2.9036  -2.9033  -2.8962  -2.8903  -2.8827  -2.8741
    -2.8582  -2.8406  -2.8336  -2.8309  -2.8308  -2.8247  -2.8246  -2.8147
    -2.8121  -2.8031  -2.7969  -2.7890  -2.7592  -2.7362  -2.7126  -2.7120
    -2.7082  -2.7079  -2.7078  -2.6951  -2.6896  -2.6819  -2.6658  -2.6341
    -2.6301  -2.6172  -2.5802  -2.5801  -2.5796  -2.5794  -2.5759  -2.5759
    -2.5736  -2.5533  -2.5333  -2.5273  -2.5186  -2.4892  -2.4871  -2.4870
    -2.4735  -2.4232  -2.4203  -2.4161  -2.4063  -2.4033  -2.4032  -2.4009
    -2.3933  -2.3904  -2.3876  -2.3530  -2.3451  -2.3351  -2.3185  -2.3073
    -2.2744  -2.2742  -2.2696  -2.2566  -2.2110  -2.1644  -2.1642  -2.0922
    -0.8447  -0.8129  -0.8128  -0.8092  -0.7959  -0.7899  -0.7803  -0.7633
    -0.7632  -0.7623  -0.7456  -0.7450  -0.7450  -0.7448  -0.7447  -0.7354
    -0.7335  -0.7279  -0.7226  -0.7131  -0.7105  -0.6972  -0.6970  -0.6913
    -0.6845  -0.6767  -0.6583  -0.6582  -0.6357  -0.6355  -0.6202  -0.6150
    -0.6149  -0.6146  -0.6108  -0.6030  -0.5905  -0.5756  -0.5285  -0.5076
    -0.4913  -0.4862  -0.4832  -0.4831  -0.4700  -0.4696  -0.4659  -0.4552
    -0.4473  -0.4472  -0.4366  -0.4339  -0.4339  -0.4323  -0.4202  -0.4045
    -0.3924  -0.3586  -0.3368  -0.3231  -0.3222  -0.3155  -0.3108  -0.3107
    -0.3105  -0.2866  -0.2721  -0.2448  -0.2429  -0.2414  -0.2268  -0.2126
    -0.2069  -0.2067  -0.1874  -0.1846  -0.1723  -0.1719  -0.1701  -0.1670
    -0.1610  -0.1591  -0.1447  -0.1428  -0.1408  -0.1174  -0.1174  -0.1107
    -0.1036  -0.0899  -0.0458  -0.0456  -0.0363  -0.0359   0.0183   0.0280
     0.0537   0.0622   0.0994   0.1110   0.1127   0.1207   0.1327   0.1415
     0.1415   0.1530   0.1544   0.1555   0.1610   0.1618   0.1696   0.1761
     0.1830   0.1987   0.2006   0.2007   0.2062   0.2070   0.2073   0.2078
     0.2146   0.2796   0.2798   0.3117   0.3124   0.3250   0.3346   0.3599
     0.3622   0.3645   0.3725   0.3902   0.4054   0.4055   0.4084   0.4183
     0.4305   0.4318   0.4348   0.4370   0.4371   0.4410   0.4425   0.4591
     0.4594   0.4596   0.4607   0.4607   0.4620   0.4622   0.4682   0.4754
     0.4808   0.4844   0.4892   0.4971   0.4981   0.5197   0.5770   0.5825
     0.5974   0.6084   0.6456   0.6695   0.6696   0.6808   0.6808   0.7647
     0.7648   0.7649   0.7712   0.7725   0.7754   0.7757   0.7829   0.7890
     0.7995   0.7996   0.8015   0.8046   0.8074   0.8106   0.8137   0.8454
     0.8509   0.8567   0.8594   0.8649   0.8650   0.8755   0.8969   0.8972
     0.9054   0.9150   0.9192   0.9193   0.9276   0.9329   0.9379   0.9384
     0.9562   0.9592   0.9760   0.9764   0.9862   0.9894   0.9970   0.9977
     1.0016   1.0049   1.0057   1.0109   1.0109   1.0167   1.0169   1.0215
     1.0439   1.0785   1.0840   1.1031   1.1249   1.1251   1.1254   1.1300
     1.1386   1.1481   1.1752   1.1894   1.2064   1.2204   1.2303   1.2303
     1.2330   1.2332   1.2384   1.2388   1.2435   1.2439   1.2517   1.2657
     1.2728   1.2770   1.2834   1.2837   1.2878   1.2923   1.2962   1.2968
     1.2972   1.3011   1.3015   1.3282   1.3283   1.3289   1.3298   1.3458
     1.3487   1.3663   1.3832   1.4077   1.4160   1.4162   1.4191   1.4293
     1.4397   1.4442   1.4492   1.4512   1.4605   1.4633   1.4650   1.4651
     1.4778   1.4843   1.4872   1.5047   1.5052   1.5071   1.5075   1.5077
     1.5153   1.5165   1.5165   1.5319   1.5400   1.5417   1.5453   1.5492
     1.6022   1.6115   1.6223   1.6372   1.6400   1.6448   1.6481   1.6490
     1.6589   1.6745   1.6845   1.7133   1.7135   1.7201   1.7228   1.7407
     1.7502   1.7609   1.7609   1.7637   1.7736   1.7736   1.7749   1.7948
     1.7951   1.8136   1.8173   1.8225   1.8290   1.8290   1.8800   1.8837
     1.8838   1.8841   1.9087   1.9247   1.9376   1.9522   1.9951   2.0053
     2.0131   2.0175   2.0235   2.0266   2.0396   2.0646   2.0805   2.0811
     2.0975   2.1046   2.1152   2.1153   2.1224   2.1260   2.1402   2.1403
     2.1404   2.1433   2.1451   2.1558   2.1592   2.1795   2.1890   2.1890
     2.1941   2.1994   2.2126   2.2216   2.2411   2.2518   2.2550   2.2618
     2.2644   2.2938   2.2939   2.2982   2.3052   2.3146   2.3282   2.3361
     2.3362   2.3417   2.3447   2.3512   2.3536   2.3590   2.3640   2.3650
     2.3869   2.3874   2.3974   2.4019   2.4119   2.4200   2.4201   2.4388
     8.5847   8.8753   9.0254   9.2733   9.3849   9.7247   9.7472   9.7521
     9.9335   9.9508  10.0401  10.0503  10.1962  10.2764  10.3026  10.3171
    10.5117  10.5117  10.5785  10.6606  10.6606  10.7066  10.7185  10.7802
    10.8530  10.8822  10.8822  10.9211  10.9829  11.0657  11.1861  11.1861
    11.1908  11.2002  11.2831  11.3296  11.3588  11.3887  11.3998  11.4226
    11.4399  11.4435  11.4495  11.4536  11.4538  11.4684  11.4738  11.4835
    11.5057  11.5285  11.5320  11.5321  11.5373  11.5395  11.5473  11.5474
    11.5543  11.5745  11.5779  11.5780  11.5875  11.5876  11.6045  11.6050
    11.6115  11.6160  11.6380  11.6428  11.6615  11.6675  11.6798  11.7239
    11.7511  11.7675  11.7675  11.7697  11.7699  11.7752  11.7796  11.7951
    11.7988  11.8030  11.8036  11.8270  11.8316  11.8552  11.8571  11.8668
    11.8673  11.9157  11.9200  11.9200  11.9230  11.9461  11.9778  11.9850
    11.9862  11.9862  11.9910  11.9910  12.0074  12.0677  12.0979  12.0980
    12.1091  12.1164  12.1181  12.1232  12.1513  12.1879  12.1933  12.1981
    12.2153  12.2214  12.2330  12.2331  12.2371  12.2482  12.2524  12.2594
    12.2804  12.3010  12.3012  12.3020  12.3249  12.3263  12.3263  12.3512
    12.3569  12.3688  12.4034  12.4071  12.4133  12.4455  12.4768  12.4935
    12.4948  12.5031  12.5137  12.5147  12.5482  12.5538  12.5677  12.5894
    12.5895  12.6006  12.6137  12.6138  12.6325  12.6370  12.6459  12.6589
    12.6843  12.7059

     occupation numbers 
     1.0000   1.0000   1.0000   1.0000   1.0000   1.0000   1.0000   1.0000
     1.0000   1.0000   1.0000   1.0000   1.0000   1.0000   1.0000   1.0000
     1.0000   1.0000   1.0000   1.0000   1.0000   1.0000   1.0000   1.0000
     1.0000   1.0000   1.0000   1.0000   1.0000   1.0000   1.0000   1.0000
     1.0000   1.0000   1.0000   1.0000   1.0000   1.0000   1.0000   1.0000
     1.0000   1.0000   1.0000   1.0000   1.0000   1.0000   1.0000   1.0000
     1.0000   1.0000   1.0000   1.0000   1.0000   1.0000   1.0000   1.0000
     1.0000   1.0000   1.0000   1.0000   1.0000   1.0000   1.0000   1.0000
     1.0000   1.0000   1.0000   1.0000   1.0000   1.0000   1.0000   1.0000
     1.0000   1.0000   1.0000   1.0000   1.0000   1.0000   1.0000   1.0000
     1.0000   1.0000   1.0000   1.0000   1.0000   1.0000   1.0000   1.0000
     1.0000   1.0000   1.0000   1.0000   1.0000   1.0000   1.0000   1.0000
     1.0000   1.0000   1.0000   1.0000   1.0000   1.0000   1.0000   1.0000
     1.0000   1.0000   1.0000   1.0000   1.0000   1.0000   1.0000   1.0000
     1.0000   1.0000   1.0000   1.0000   1.0000   1.0000   1.0000   1.0000
     1.0000   1.0000   1.0000   1.0000   1.0000   1.0000   1.0000   1.0000
     1.0000   1.0000   1.0000   1.0000   1.0000   1.0000   1.0000   1.0000
     1.0000   1.0000   1.0000   1.0000   1.0000   1.0000   1.0000   1.0000
     1.0000   1.0000   1.0000   1.0000   1.0000   1.0000   1.0000   1.0000
     1.0000   1.0000   1.0000   1.0000   1.0000   1.0000   1.0000   1.0000
     1.0000   1.0000   1.0000   1.0000   1.0000   1.0000   1.0000   1.0000
     1.0000   1.0000   1.0000   1.0000   1.0000   1.0000   1.0000   1.0000
     1.0000   1.0000   1.0000   1.0000   1.0000   1.0000   1.0000   1.0000
     1.0000   1.0000   1.0000   1.0000   1.0000   1.0000   1.0000   1.0000
     1.0000   1.0000   1.0000   1.0000   1.0000   1.0000   1.0000   1.0000
     1.0000   1.0000   1.0000   1.0000   1.0000   1.0000   1.0000   1.0000
     1.0000   1.0000   1.0000   1.0000   1.0000   1.0000   1.0000   1.0000
     1.0000   1.0000   1.0000   1.0000   1.0000   1.0000   1.0000   1.0000
     1.0000   1.0000   1.0000   1.0000   1.0000   1.0000   1.0000   1.0000
     1.0000   1.0000   1.0000   1.0000   1.0000   1.0000   1.0000   1.0000
     1.0000   1.0000   1.0000   1.0000   1.0000   1.0000   1.0000   1.0000
     1.0000   1.0000   1.0000   1.0000   1.0000   1.0000   1.0000   1.0000
     1.0000   1.0000   1.0000   1.0000   1.0000   1.0000   1.0000   1.0000
     1.0000   1.0000   1.0000   1.0000   1.0000   1.0000   1.0000   1.0000
     1.0000   1.0000   1.0000   1.0000   1.0000   1.0000   1.0000   1.0000
     1.0000   1.0000   1.0000   1.0000   1.0000   1.0000   1.0000   1.0000
     1.0000   1.0000   1.0000   1.0000   1.0000   1.0000   1.0000   1.0000
     1.0000   1.0000   1.0000   1.0000   1.0000   1.0000   1.0000   1.0000
     1.0000   1.0000   1.0000   1.0000   1.0000   1.0000   1.0000   1.0000
     1.0000   1.0000   1.0000   1.0000   1.0000   1.0000   1.0000   1.0000
     1.0000   1.0000   1.0000   1.0000   1.0000   1.0000   1.0000   1.0000
     1.0000   1.0000   1.0000   1.0000   1.0000   1.0000   1.0000   1.0000
     1.0000   1.0000   1.0000   1.0000   1.0000   1.0000   1.0000   1.0000
     1.0000   1.0000   1.0000   1.0000   1.0000   1.0000   1.0000   1.0000
     1.0000   1.0000   1.0000   1.0000   1.0000   1.0000   1.0000   1.0000
     1.0000   1.0000   1.0000   1.0000   1.0000   1.0000   1.0000   1.0000
     1.0000   1.0000   1.0000   1.0000   1.0000   1.0000   1.0000   1.0000
     1.0000   1.0000   1.0000   1.0000   1.0000   1.0000   1.0000   1.0000
     1.0000   1.0000   1.0000   1.0000   1.0000   1.0000   1.0000   1.0000
     1.0000   1.0000   1.0000   1.0000   1.0000   1.0000   1.0000   1.0000
     1.0000   1.0000   1.0000   1.0000   1.0000   1.0000   1.0000   1.0000
     1.0000   1.0000   1.0000   1.0000   1.0000   1.0000   1.0000   1.0000
     1.0000   1.0000   1.0000   1.0000   1.0000   1.0000   1.0000   1.0000
     1.0000   1.0000   1.0000   1.0000   1.0000   1.0000   1.0000   1.0000
     1.0000   1.0000   1.0000   1.0000   1.0000   1.0000   1.0000   1.0000
     1.0000   1.0000   1.0000   1.0000   1.0000   1.0000   1.0000   1.0000
     1.0000   1.0000   1.0000   1.0000   1.0000   1.0000   1.0000   1.0000
     1.0000   1.0000   1.0000   1.0000   1.0000   1.0000   1.0000   1.0000
     1.0000   1.0000   1.0000   1.0000   1.0000   1.0000   1.0000   1.0000
     1.0000   1.0000   1.0000   1.0000   1.0000   1.0000   1.0000   1.0000
     1.0000   1.0000   1.0000   1.0000   1.0000   1.0000   1.0000   1.0000
     1.0000   1.0000   1.0000   1.0000   1.0000   1.0000   1.0000   1.0000
     1.0000   1.0000   1.0000   1.0000   1.0000   1.0000   1.0000   1.0000
     1.0000   1.0000   1.0000   1.0000   1.0000   1.0000   1.0000   1.0000
     1.0000   1.0000   1.0000   1.0000   1.0000   1.0000   1.0000   1.0000
     1.0000   1.0000   1.0000   1.0000   1.0000   1.0000   1.0000   1.0000
     1.0000   1.0000   1.0000   1.0000   1.0000   1.0000   1.0000   1.0000
     1.0000   1.0000   1.0000   1.0000   1.0000   1.0000   1.0000   1.0000
     1.0000   1.0000   1.0000   1.0000   1.0000   1.0000   1.0000   1.0000
     1.0000   1.0000   1.0000   1.0000   1.0000   1.0000   1.0000   1.0000
     1.0000   1.0000   1.0000   1.0000   1.0000   1.0000   1.0000   1.0000
     1.0000   1.0000   1.0000   1.0000   1.0000   1.0000   1.0000   1.0000
     1.0000   1.0000   1.0000   1.0000   1.0000   1.0000   1.0000   1.0000
     1.0000   1.0000   1.0000   1.0000   1.0000   1.0000   1.0000   1.0000
     1.0000   1.0000   1.0000   1.0000   1.0000   1.0000   1.0000   1.0000
[...]
     atom   89 type  2   force =    -0.00000020   -0.00000002    0.00000007
     atom   90 type  2   force =     0.00000013   -0.00000014    0.00000012
     atom   91 type  2   force =     0.00000009    0.00000009    0.00000016
     atom   92 type  2   force =     0.00000007   -0.00000003    0.00000007
     atom   93 type  2   force =    -0.00000001   -0.00000000    0.00000014
     atom   94 type  2   force =    -0.00000008    0.00000030   -0.00000002
     atom   95 type  2   force =     0.00000002    0.00000009    0.00000002
     atom   96 type  2   force =    -0.00000002   -0.00000002    0.00000005
     atom   97 type  1   force =    -0.00000013   -0.00000002    0.00000018
     atom   98 type  1   force =     0.00000010   -0.00000020    0.00000016
     atom   99 type  1   force =     0.00000015   -0.00000006    0.00000018
     atom  100 type  1   force =     0.00000013   -0.00000016    0.00000018
     atom  101 type  1   force =    -0.00000004   -0.00000015    0.00000026
     atom  102 type  1   force =     0.00000014    0.00000021    0.00000035
     atom  103 type  1   force =     0.00000008    0.00000005    0.00000010
     atom  104 type  1   force =     0.00000011   -0.00000003    0.00000004
     atom  105 type  2   force =     0.00000016   -0.00000058    0.00000007
     atom  106 type  2   force =     0.00000002   -0.00000041    0.00000001
     atom  107 type  2   force =    -0.00000007   -0.00000004    0.00000038
     atom  108 type  2   force =     0.00000004   -0.00000013    0.00000004
     atom  109 type  2   force =    -0.00000022   -0.00000011    0.00000008
     atom  110 type  2   force =    -0.00000008    0.00000009    0.00000025
     atom  111 type  2   force =     0.00000010   -0.00000009    0.00000014
     atom  112 type  2   force =     0.00000029   -0.00000022    0.00000011
     atom  113 type  2   force =    -0.00000010   -0.00000003    0.00000006
     atom  114 type  2   force =    -0.00000000    0.00000023    0.00000027
     atom  115 type  2   force =    -0.00000002    0.00000001    0.00000002
     atom  116 type  2   force =    -0.00000019    0.00000008    0.00000021
     atom  117 type  2   force =    -0.00000014   -0.00000012    0.00000022
     atom  118 type  2   force =    -0.00000013    0.00000009    0.00000012
     atom  119 type  2   force =     0.00000004   -0.00000011    0.00000021
     atom  120 type  2   force =    -0.00000001    0.00000004    0.00000013
     atom  121 type  1   force =     0.00000001   -0.00000001   -0.00000012
     atom  122 type  1   force =    -0.00000018    0.00000010   -0.00000008
     atom  123 type  1   force =     0.00000003    0.00000004   -0.00000010
     atom  124 type  1   force =     0.00000004    0.00000009    0.00000001
     atom  125 type  1   force =    -0.00000005   -0.00000016    0.00000001
     atom  126 type  1   force =    -0.00000014   -0.00000008   -0.00000006
     atom  127 type  1   force =     0.00000008   -0.00000005    0.00000015
     atom  128 type  1   force =     0.00000002   -0.00000006   -0.00000006
     atom  129 type  2   force =    -0.00000014    0.00000004    0.00000017
     atom  130 type  2   force =    -0.00000019   -0.00000002    0.00000027
     atom  131 type  2   force =     0.00000014   -0.00000005    0.00000004
     atom  132 type  2   force =     0.00000021    0.00000004    0.00000017
     atom  133 type  2   force =    -0.00000005   -0.00000013    0.00000028
     atom  134 type  2   force =    -0.00000007    0.00000017    0.00000034
     atom  135 type  2   force =     0.00000005   -0.00000014    0.00000016
     atom  136 type  2   force =    -0.00000002    0.00000007    0.00000021
     atom  137 type  2   force =    -0.00000002   -0.00000023    0.00000010
     atom  138 type  2   force =     0.00000008   -0.00000020    0.00000003
     atom  139 type  2   force =     0.00000006   -0.00000014    0.00000001
     atom  140 type  2   force =     0.00000011   -0.00000007   -0.00000005
     atom  141 type  2   force =     0.00000019   -0.00000027   -0.00000007
     atom  142 type  2   force =     0.00000014    0.00000008   -0.00000010
     atom  143 type  2   force =     0.00000015   -0.00000019   -0.00000008
     atom  144 type  2   force =     0.00000021    0.00000011    0.00000010
     atom  145 type  1   force =    -0.00000007    0.00000000    0.00000000
     atom  146 type  1   force =    -0.00000012   -0.00000000   -0.00000000
     atom  147 type  1   force =     0.00000009    0.00000000    0.00000000
     atom  148 type  1   force =     0.00000008   -0.00000000   -0.00000000
     atom  149 type  1   force =     0.00000010   -0.00000010   -0.00000006
     atom  150 type  1   force =     0.00000010    0.00000010    0.00000006
     atom  151 type  1   force =     0.00000006   -0.00000015   -0.00000000
     atom  152 type  1   force =     0.00000006    0.00000015    0.00000000
     atom  153 type  2   force =     0.00000008    0.00000020   -0.00000003
     atom  154 type  2   force =    -0.00000002    0.00000023   -0.00000010
     atom  155 type  2   force =     0.00000011    0.00000007    0.00000005
     atom  156 type  2   force =     0.00000006    0.00000014   -0.00000001
     atom  157 type  2   force =     0.00000014   -0.00000008    0.00000010
     atom  158 type  2   force =     0.00000019    0.00000027    0.00000007
     atom  159 type  2   force =     0.00000021   -0.00000011   -0.00000010
     atom  160 type  2   force =     0.00000015    0.00000019    0.00000008
     atom  161 type  2   force =    -0.00000019    0.00000002   -0.00000027
     atom  162 type  2   force =    -0.00000014   -0.00000004   -0.00000017
     atom  163 type  2   force =     0.00000021   -0.00000004   -0.00000017
     atom  164 type  2   force =     0.00000014    0.00000005   -0.00000004
     atom  165 type  2   force =    -0.00000007   -0.00000017   -0.00000034
     atom  166 type  2   force =    -0.00000005    0.00000013   -0.00000028
     atom  167 type  2   force =    -0.00000002   -0.00000007   -0.00000021
     atom  168 type  2   force =     0.00000005    0.00000014   -0.00000016
     atom  169 type  1   force =    -0.00000018   -0.00000010    0.00000008
     atom  170 type  1   force =     0.00000001    0.00000001    0.00000012
     atom  171 type  1   force =     0.00000004   -0.00000009   -0.00000001
     atom  172 type  1   force =     0.00000003   -0.00000004    0.00000010
     atom  173 type  1   force =    -0.00000014    0.00000008    0.00000006
     atom  174 type  1   force =    -0.00000005    0.00000016   -0.00000001
     atom  175 type  1   force =     0.00000002    0.00000006    0.00000006
     atom  176 type  1   force =     0.00000008    0.00000005   -0.00000015
     atom  177 type  2   force =    -0.00000000   -0.00000023   -0.00000027
     atom  178 type  2   force =    -0.00000010    0.00000003   -0.00000006
     atom  179 type  2   force =    -0.00000019   -0.00000008   -0.00000021
     atom  180 type  2   force =    -0.00000002   -0.00000001   -0.00000002
     atom  181 type  2   force =    -0.00000013   -0.00000009   -0.00000012
     atom  182 type  2   force =    -0.00000014    0.00000012   -0.00000022
     atom  183 type  2   force =    -0.00000001   -0.00000004   -0.00000013
     atom  184 type  2   force =     0.00000004    0.00000011   -0.00000021
     atom  185 type  2   force =     0.00000002    0.00000041   -0.00000001
     atom  186 type  2   force =     0.00000016    0.00000058   -0.00000007
     atom  187 type  2   force =     0.00000004    0.00000013   -0.00000004
     atom  188 type  2   force =    -0.00000007    0.00000004   -0.00000038
     atom  189 type  2   force =    -0.00000008   -0.00000009   -0.00000025
     atom  190 type  2   force =    -0.00000022    0.00000011   -0.00000008
     atom  191 type  2   force =     0.00000029    0.00000022   -0.00000011
     atom  192 type  2   force =     0.00000010    0.00000009   -0.00000014
     atom  193 type  1   force =     0.00000010    0.00000020   -0.00000016
     atom  194 type  1   force =    -0.00000013    0.00000002   -0.00000018
     atom  195 type  1   force =     0.00000013    0.00000016   -0.00000018
     atom  196 type  1   force =     0.00000015    0.00000006   -0.00000018
     atom  197 type  1   force =     0.00000014   -0.00000021   -0.00000035
     atom  198 type  1   force =    -0.00000004    0.00000015   -0.00000026
     atom  199 type  1   force =     0.00000011    0.00000003   -0.00000004
     atom  200 type  1   force =     0.00000008   -0.00000005   -0.00000010
     atom  201 type  2   force =     0.00000013    0.00000014   -0.00000012
     atom  202 type  2   force =    -0.00000020    0.00000002   -0.00000007
     atom  203 type  2   force =     0.00000007    0.00000003   -0.00000007
     atom  204 type  2   force =     0.00000009   -0.00000009   -0.00000016
     atom  205 type  2   force =    -0.00000008   -0.00000030    0.00000002
     atom  206 type  2   force =    -0.00000001    0.00000000   -0.00000014
     atom  207 type  2   force =    -0.00000002    0.00000002   -0.00000005
     atom  208 type  2   force =     0.00000002   -0.00000009   -0.00000002
     atom  209 type  2   force =     0.00000012   -0.00000020   -0.00000032
     atom  210 type  2   force =     0.00000016   -0.00000003   -0.00000033
     atom  211 type  2   force =    -0.00000004   -0.00000019   -0.00000006
     atom  212 type  2   force =    -0.00000011   -0.00000014   -0.00000003
     atom  213 type  2   force =     0.00000027   -0.00000019   -0.00000018
     atom  214 type  2   force =    -0.00000009   -0.00000006   -0.00000011
     atom  215 type  2   force =     0.00000010   -0.00000016   -0.00000009
     atom  216 type  2   force =     0.00000007   -0.00000002   -0.00000020
     atom  217 type  1   force =     0.00000001   -0.00000002   -0.00000002
     atom  218 type  1   force =     0.00000020   -0.00000009    0.00000003
     atom  219 type  1   force =    -0.00000007    0.00000004   -0.00000012
     atom  220 type  1   force =    -0.00000007   -0.00000001   -0.00000016
     atom  221 type  1   force =     0.00000026   -0.00000008   -0.00000002
     atom  222 type  1   force =    -0.00000007   -0.00000010    0.00000004
     atom  223 type  1   force =     0.00000001    0.00000005    0.00000016
     atom  224 type  1   force =     0.00000006    0.00000005   -0.00000009
     atom  225 type  2   force =     0.00000000    0.00000003   -0.00000001
     atom  226 type  2   force =     0.00000010    0.00000026   -0.00000024
     atom  227 type  2   force =    -0.00000009    0.00000030   -0.00000022
     atom  228 type  2   force =    -0.00000007    0.00000020   -0.00000017
     atom  229 type  2   force =     0.00000023   -0.00000001    0.00000011
     atom  230 type  2   force =    -0.00000000    0.00000009   -0.00000009
     atom  231 type  2   force =     0.00000007    0.00000001   -0.00000005
     atom  232 type  2   force =     0.00000008    0.00000012   -0.00000005
     atom  233 type  2   force =     0.00000009   -0.00000004   -0.00000012
     atom  234 type  2   force =     0.00000017   -0.00000007    0.00000001
     atom  235 type  2   force =     0.00000002    0.00000017   -0.00000031
     atom  236 type  2   force =    -0.00000008    0.00000015   -0.00000022
     atom  237 type  2   force =     0.00000003   -0.00000008   -0.00000010
     atom  238 type  2   force =     0.00000001   -0.00000003   -0.00000023
     atom  239 type  2   force =    -0.00000012   -0.00000023   -0.00000023
     atom  240 type  2   force =     0.00000003    0.00000005   -0.00000015
     atom  241 type  1   force =    -0.00000003   -0.00000010    0.00000014
     atom  242 type  1   force =     0.00000009   -0.00000004   -0.00000006
     atom  243 type  1   force =     0.00000009    0.00000001    0.00000004
     atom  244 type  1   force =     0.00000006    0.00000006    0.00000012
     atom  245 type  1   force =     0.00000012   -0.00000012    0.00000004
     atom  246 type  1   force =     0.00000009   -0.00000004   -0.00000004
     atom  247 type  1   force =    -0.00000003   -0.00000002    0.00000001
     atom  248 type  1   force =     0.00000008   -0.00000001   -0.00000003
     atom  249 type  2   force =     0.00000003   -0.00000005   -0.00000016
     atom  250 type  2   force =     0.00000001   -0.00000005   -0.00000001
     atom  251 type  2   force =    -0.00000027   -0.00000002   -0.00000017
     atom  252 type  2   force =     0.00000001   -0.00000025   -0.00000006
     atom  253 type  2   force =     0.00000010   -0.00000039   -0.00000016
     atom  254 type  2   force =     0.00000018   -0.00000039   -0.00000023
     atom  255 type  2   force =     0.00000016   -0.00000022   -0.00000006
     atom  256 type  2   force =    -0.00000001   -0.00000005   -0.00000004
     atom  257 type  2   force =     0.00000015    0.00000012   -0.00000009
     atom  258 type  2   force =    -0.00000009    0.00000009   -0.00000008
     atom  259 type  2   force =    -0.00000017    0.00000017    0.00000011
     atom  260 type  2   force =    -0.00000009    0.00000009   -0.00000006
     atom  261 type  2   force =    -0.00000001    0.00000008   -0.00000013
     atom  262 type  2   force =    -0.00000006    0.00000007   -0.00000003
     atom  263 type  2   force =     0.00000003    0.00000013   -0.00000012
     atom  264 type  2   force =    -0.00000003    0.00000008   -0.00000004
     atom  265 type  1   force =    -0.00000002   -0.00000003   -0.00000016
     atom  266 type  1   force =    -0.00000007   -0.00000004   -0.00000011
     atom  267 type  1   force =    -0.00000003   -0.00000010    0.00000005
     atom  268 type  1   force =    -0.00000001   -0.00000011   -0.00000012
     atom  269 type  1   force =     0.00000008   -0.00000001   -0.00000014
     atom  270 type  1   force =    -0.00000003   -0.00000005   -0.00000009
     atom  271 type  1   force =    -0.00000001   -0.00000002   -0.00000012
     atom  272 type  1   force =     0.00000001   -0.00000016   -0.00000010
     atom  273 type  2   force =     0.00000003   -0.00000000    0.00000012
     atom  274 type  2   force =    -0.00000003    0.00000005    0.00000010
     atom  275 type  2   force =    -0.00000008    0.00000011    0.00000010
     atom  276 type  2   force =    -0.00000006   -0.00000012    0.00000015
     atom  277 type  2   force =     0.00000012   -0.00000005   -0.00000008
     atom  278 type  2   force =     0.00000006   -0.00000012    0.00000001
     atom  279 type  2   force =    -0.00000004    0.00000001    0.00000002
     atom  280 type  2   force =    -0.00000003   -0.00000018    0.00000010
     atom  281 type  2   force =     0.00000008   -0.00000010   -0.00000008
     atom  282 type  2   force =     0.00000004   -0.00000011   -0.00000002
     atom  283 type  2   force =     0.00000007   -0.00000020    0.00000002
     atom  284 type  2   force =    -0.00000006   -0.00000015    0.00000000
     atom  285 type  2   force =     0.00000008   -0.00000010   -0.00000009
     atom  286 type  2   force =     0.00000001   -0.00000009    0.00000002
     atom  287 type  2   force =    -0.00000015   -0.00000011    0.00000007
     atom  288 type  2   force =    -0.00000009   -0.00000009   -0.00000003

     Total force =     0.080954     Total SCF correction =     0.000004

     Writing all to output data dir ./SiO2_OR_288_us.save/
 
     init_run     :     14.25s CPU      7.34s WALL (       1 calls)
     electrons    :    102.25s CPU    107.95s WALL (       1 calls)
     forces       :      2.92s CPU      1.96s WALL (       1 calls)

     Called by init_run:
     wfcinit      :      2.12s CPU      2.47s WALL (       1 calls)
                                        2.47s GPU  (       1 calls)
     wfcinit:atom :      0.01s CPU      0.02s WALL (       2 calls)
                                        0.01s GPU  (       2 calls)
     wfcinit:wfcr :      1.65s CPU      1.92s WALL (       2 calls)
                                        1.92s GPU  (       2 calls)
     potinit      :      3.14s CPU      0.72s WALL (       1 calls)
     hinit0       :      7.79s CPU      2.75s WALL (       1 calls)

     Called by electrons:
     c_bands      :     82.33s CPU     93.30s WALL (      16 calls)
     sum_band     :     11.09s CPU     11.20s WALL (      16 calls)
     v_of_rho     :      6.94s CPU      1.38s WALL (      17 calls)
     v_h          :      0.40s CPU      0.08s WALL (      17 calls)
     v_xc         :      6.92s CPU      1.38s WALL (      18 calls)
     newd         :      1.12s CPU      2.17s WALL (      17 calls)
                                        2.17s GPU  (      17 calls)
     mix_rho      :      0.86s CPU      0.35s WALL (      16 calls)

     Called by c_bands:
     init_us_2_gp :      1.23s CPU      1.28s WALL (      68 calls)
     cegterg      :     79.54s CPU     90.30s WALL (      32 calls)

     Called by sum_band:
     sum_band:wei :      0.00s CPU      0.00s WALL (      16 calls)
                                        0.00s GPU  (      16 calls)
     sum_band:loo :      9.96s CPU     10.52s WALL (      16 calls)
                                       10.52s GPU  (      16 calls)
     sum_band:buf :      0.30s CPU      0.32s WALL (      32 calls)
                                        0.32s GPU  (      32 calls)
     sum_band:ini :      0.59s CPU      0.60s WALL (      32 calls)
                                        0.60s GPU  (      32 calls)
     sum_band:cal :      2.03s CPU      2.20s WALL (      32 calls)
                                        2.20s GPU  (      32 calls)
     sum_band:bec :      0.23s CPU      0.26s WALL (      32 calls)
                                        0.26s GPU  (      32 calls)
     addusdens    :      0.22s CPU      0.14s WALL (      16 calls)
                                        0.14s GPU  (      16 calls)
     addusd:skk   :      0.14s CPU      0.08s WALL (      32 calls)
                                        0.06s GPU  (      32 calls)

     Called by *egterg:
     cdiaghg      :     27.29s CPU     30.94s WALL (     215 calls)
                                       30.86s GPU  (     215 calls)
     cegterg:over :      5.31s CPU      5.73s WALL (     183 calls)
     cegterg:upda :      0.61s CPU      0.78s WALL (     183 calls)
     cegterg:last :      1.43s CPU      1.76s WALL (      73 calls)
     h_psi        :     40.84s CPU     44.25s WALL (     217 calls)
                                       44.23s GPU  (     217 calls)
     s_psi        :      1.00s CPU      2.59s WALL (     217 calls)
                                        2.56s GPU  (     217 calls)
     g_psi        :      0.00s CPU      0.02s WALL (     183 calls)
                                        0.02s GPU  (     183 calls)

     Called by h_psi:
     h_psi:calbec :      5.57s CPU      6.09s WALL (     217 calls)
                                        6.09s GPU  (     217 calls)
     vloc_psi     :     33.39s CPU     35.98s WALL (     217 calls)
                                       35.93s GPU  (     217 calls)
     add_vuspsi   :      0.75s CPU      2.15s WALL (     217 calls)
                                        2.15s GPU  (     217 calls)

     General routines
     calbec       :      8.14s CPU      8.87s WALL (     257 calls)
     fft          :      4.38s CPU      1.30s WALL (     230 calls)
                                        0.29s GPU  (      21 calls)
     ffts         :      0.35s CPU      0.10s WALL (      33 calls)
     fftw         :     39.14s CPU     42.61s WALL (   12228 calls)
                                       41.66s GPU  (   12228 calls)
     interpolate  :      0.54s CPU      0.15s WALL (      17 calls)
 
     Parallel routines
 
     PWSCF        :   2m 1.98s CPU   2m 0.30s WALL

 
   This run was terminated on:  15:42:18  29Sep2021            

=------------------------------------------------------------------------------=
   JOB DONE.
=------------------------------------------------------------------------------=
