
     Program PWSCF v.6.8 starts on 29Sep2021 at 15:24:53 

     This program is part of the open-source Quantum ESPRESSO suite
     for quantum simulation of materials; please cite
         "P. Giannozzi et al., J. Phys.:Condens. Matter 21 395502 (2009);
         "P. Giannozzi et al., J. Phys.:Condens. Matter 29 465901 (2017);
         "P. Giannozzi et al., J. Chem. Phys. 152 154105 (2020);
          URL http://www.quantum-espresso.org", 
     in publications or presentations arising from this work. More details at
     http://www.quantum-espresso.org/quote

     Parallel version (MPI & OpenMP), running on      64 processor cores
     Number of MPI processes:                 8
     Threads/MPI process:                     8

     MPI processes distributed on     2 nodes
     K-points division:     npool     =       4
     R & G space division:  proc/nbgrp/npool/nimage =       2
     286676 MiB available memory on the printing compute node when the environment starts
 
     Reading input from input_quarzo_288
Warning: card &CELL ignored
Warning: card / ignored

     Current dimensions of program PWSCF are:
     Max number of different atomic species (ntypx) = 10
     Max number of k-points (npk) =  40000
     Max angular momentum in pseudopotentials (lmaxx) =  4
     Found symmetry operation: I + (  0.0000  0.5000  0.0000)
     This is a supercell, fractional translations are disabled
     Message from routine divide_et_impera:
     suboptimal parallelization: some nodes have no k-points

     Subspace diagonalization in iterative solution of the eigenvalue problem:
     a serial algorithm will be used

 
     Parallelization info
     --------------------
     sticks:   dense  smooth     PW     G-vecs:    dense   smooth      PW
     Min        7599    3801   1004              1179655   417161   56438
     Max        7600    3802   1005              1179660   417166   56443
     Sum       15199    7603   2009              2359315   834327  112881
 
     Using Slab Decomposition
 

     Title: 
     'srtio_bulk'                                                               


     bravais-lattice index     =            8
     lattice parameter (alat)  =      18.5722  a.u.
     unit-cell volume          =   24408.6485 (a.u.)^3
     number of atoms/cell      =          288
     number of atomic types    =            2
     number of electrons       =      1536.00
     number of Kohn-Sham states=          922
     kinetic-energy cutoff     =      40.0000  Ry
     charge density cutoff     =     320.0000  Ry
     scf convergence threshold =      1.0E-10
     mixing beta               =       0.7000
     number of iterations used =            8  plain     mixing
     energy convergence thresh.=      1.0E-04
     force convergence thresh. =      3.0E-05
     Exchange-correlation= PBESOL
                           (   1   4  10   8   0   0   0)
     nstep                     =          350


     GPU acceleration is ACTIVE.


     GPU used by master process:

        Device Number: 0
        Device name: Tesla V100-SXM2-16GB
        Compute capability : 70
        Ratio of single to double precision performance  : 2
        Memory Clock Rate (KHz): 877000
        Memory Bus Width (bits): 4096
        Peak Memory Bandwidth (GB/s): 898.05

     celldm(1)=  18.572236  celldm(2)=   1.732051  celldm(3)=   2.199837
     celldm(4)=   0.000000  celldm(5)=   0.000000  celldm(6)=   0.000000

     crystal axes: (cart. coord. in units of alat)
               a(1) = (   1.000000   0.000000   0.000000 )  
               a(2) = (   0.000000   1.732051   0.000000 )  
               a(3) = (   0.000000   0.000000   2.199837 )  

     reciprocal axes: (cart. coord. in units 2 pi/alat)
               b(1) = (  1.000000  0.000000  0.000000 )  
               b(2) = (  0.000000  0.577350  0.000000 )  
               b(3) = (  0.000000  0.000000  0.454579 )  


     PseudoPot. # 1 for Si read from file:
     ./Si.pbesol-n-rrkjus_psl.0.1.UPF
     MD5 check sum: 84986bd6be9e79932892c86d18f23292
     Pseudo is Ultrasoft + core correction, Zval =  4.0
     Generated using "atomic" code by A. Dal Corso  v.5.0.2 svn rev. 9415
     Using radial grid of 1141 points,  4 beta functions with: 
                l(1) =   0
                l(2) =   0
                l(3) =   1
                l(4) =   1
     Q(r) pseudized with 0 coefficients 


     PseudoPot. # 2 for O  read from file:
     ./O.pbesol-n-rrkjus_psl.0.1.UPF
     MD5 check sum: 860b55360c6eac1e4db712ce01d51bd8
     Pseudo is Ultrasoft + core correction, Zval =  6.0
     Generated using "atomic" code by A. Dal Corso  v.5.0.2 svn rev. 9415
     Using radial grid of 1095 points,  4 beta functions with: 
                l(1) =   0
                l(2) =   0
                l(3) =   1
                l(4) =   1
     Q(r) pseudized with 0 coefficients 


     atomic species   valence    mass     pseudopotential
        Si             4.00    47.86700     Si( 1.00)
        O              6.00    15.99940     O ( 1.00)

      2 Sym. Ops. (no inversion) found


                                    s                        frac. trans.

      isym =  1     identity                                     

 cryst.   s( 1) = (     1          0          0      )
                  (     0          1          0      )
                  (     0          0          1      )

 cart.    s( 1) = (  1.0000000  0.0000000  0.0000000 )
                  (  0.0000000  1.0000000  0.0000000 )
                  (  0.0000000  0.0000000  1.0000000 )


      isym =  2     180 deg rotation - cart. axis [1,0,0]        

 cryst.   s( 2) = (     1          0          0      )
                  (     0         -1          0      )
                  (     0          0         -1      )

 cart.    s( 2) = (  1.0000000  0.0000000  0.0000000 )
                  (  0.0000000 -1.0000000  0.0000000 )
                  (  0.0000000  0.0000000 -1.0000000 )


     point group C_2  (2)   
     there are  2 classes
     the character table:

       E     C2   
A      1.00  1.00
B      1.00 -1.00

     the symmetry operations in each class and the name of the first element:

     E        1
          identity                                               
     C2       2
          180 deg rotation - cart. axis [1,0,0]                  

   Cartesian axes

     site n.     atom                  positions (alat units)
         1           Si  tau(   1) = (   0.2345674   0.0000000   0.0000000  )
         2           Si  tau(   2) = (   0.2345674   0.8660254   0.0000000  )
         3           Si  tau(   3) = (   0.7345674   0.0000000   0.0000000  )
         4           Si  tau(   4) = (   0.7345674   0.8660254   0.0000000  )
         5           Si  tau(   5) = (   0.4845674   0.4330127   0.0000000  )
         6           Si  tau(   6) = (   0.4845674   1.2990381   0.0000000  )
         7           Si  tau(   7) = (   0.9845674   0.4330127   0.0000000  )
         8           Si  tau(   8) = (   0.9845674   1.2990381   0.0000000  )
         9           O   tau(   9) = (   0.1393135   0.7487106   0.0636252  )
        10           O   tau(  10) = (   0.1393135   1.6147360   0.0636252  )
        11           O   tau(  11) = (   0.6393135   0.7487106   0.0636252  )
        12           O   tau(  12) = (   0.6393135   1.6147360   0.0636252  )
        13           O   tau(  13) = (   0.3893135   0.3156979   0.0636252  )
        14           O   tau(  14) = (   0.3893135   1.1817233   0.0636252  )
        15           O   tau(  15) = (   0.8893135   0.3156979   0.0636252  )
        16           O   tau(  16) = (   0.8893135   1.1817233   0.0636252  )
        17           O   tau(  17) = (   0.3287456   0.0619916   0.1196945  )
        18           O   tau(  18) = (   0.3287456   0.9280170   0.1196945  )
        19           O   tau(  19) = (   0.8287456   0.0619916   0.1196945  )
        20           O   tau(  20) = (   0.8287456   0.9280170   0.1196945  )
        21           O   tau(  21) = (   0.0787456   0.4950043   0.1196945  )
        22           O   tau(  22) = (   0.0787456   1.3610297   0.1196945  )
        23           O   tau(  23) = (   0.5787456   0.4950043   0.1196945  )
        24           O   tau(  24) = (   0.5787456   1.3610297   0.1196945  )
        25           Si  tau(  25) = (   0.3827163   0.2031413   0.1833198  )
        26           Si  tau(  26) = (   0.3827163   1.0691667   0.1833198  )
        27           Si  tau(  27) = (   0.8827163   0.2031413   0.1833198  )
        28           Si  tau(  28) = (   0.8827163   1.0691667   0.1833198  )
        29           Si  tau(  29) = (   0.1327163   0.6361540   0.1833198  )
        30           Si  tau(  30) = (   0.1327163   1.5021794   0.1833198  )
        31           Si  tau(  31) = (   0.6327163   0.6361540   0.1833198  )
        32           Si  tau(  32) = (   0.6327163   1.5021794   0.1833198  )
        33           O   tau(  33) = (   0.0319409   0.1793064   0.2469450  )
        34           O   tau(  34) = (   0.0319409   1.0453318   0.2469450  )
        35           O   tau(  35) = (   0.5319409   0.1793064   0.2469450  )
        36           O   tau(  36) = (   0.5319409   1.0453318   0.2469450  )
        37           O   tau(  37) = (   0.2819409   0.6123191   0.2469450  )
        38           O   tau(  38) = (   0.2819409   1.4783445   0.2469450  )
        39           O   tau(  39) = (   0.7819409   0.6123191   0.2469450  )
        40           O   tau(  40) = (   0.7819409   1.4783445   0.2469450  )
        41           O   tau(  41) = (   0.0319409   0.6867190   0.3030143  )
        42           O   tau(  42) = (   0.0319409   1.5527444   0.3030143  )
        43           O   tau(  43) = (   0.5319409   0.6867190   0.3030143  )
        44           O   tau(  44) = (   0.5319409   1.5527444   0.3030143  )
        45           O   tau(  45) = (   0.2819409   0.2537063   0.3030143  )
        46           O   tau(  46) = (   0.2819409   1.1197317   0.3030143  )
        47           O   tau(  47) = (   0.7819409   0.2537063   0.3030143  )
        48           O   tau(  48) = (   0.7819409   1.1197317   0.3030143  )
        49           Si  tau(  49) = (   0.3827163   0.6628841   0.3666395  )
        50           Si  tau(  50) = (   0.3827163   1.5289095   0.3666395  )
        51           Si  tau(  51) = (   0.8827163   0.6628841   0.3666395  )
        52           Si  tau(  52) = (   0.8827163   1.5289095   0.3666395  )
        53           Si  tau(  53) = (   0.1327163   0.2298714   0.3666395  )
        54           Si  tau(  54) = (   0.1327163   1.0958968   0.3666395  )
        55           Si  tau(  55) = (   0.6327163   0.2298714   0.3666395  )
        56           Si  tau(  56) = (   0.6327163   1.0958968   0.3666395  )
        57           O   tau(  57) = (   0.3287456   0.8040338   0.4302648  )
        58           O   tau(  58) = (   0.3287456   1.6700592   0.4302648  )
        59           O   tau(  59) = (   0.8287456   0.8040338   0.4302648  )
        60           O   tau(  60) = (   0.8287456   1.6700592   0.4302648  )
        61           O   tau(  61) = (   0.0787456   0.3710211   0.4302648  )
        62           O   tau(  62) = (   0.0787456   1.2370465   0.4302648  )
        63           O   tau(  63) = (   0.5787456   0.3710211   0.4302648  )
        64           O   tau(  64) = (   0.5787456   1.2370465   0.4302648  )
        65           O   tau(  65) = (   0.1393135   0.1173148   0.4863341  )
        66           O   tau(  66) = (   0.1393135   0.9833403   0.4863341  )
        67           O   tau(  67) = (   0.6393135   0.1173148   0.4863341  )
        68           O   tau(  68) = (   0.6393135   0.9833403   0.4863341  )
        69           O   tau(  69) = (   0.3893135   0.5503275   0.4863341  )
        70           O   tau(  70) = (   0.3893135   1.4163530   0.4863341  )
        71           O   tau(  71) = (   0.8893135   0.5503275   0.4863341  )
        72           O   tau(  72) = (   0.8893135   1.4163530   0.4863341  )
        73           Si  tau(  73) = (   0.2345674   0.0000000   0.5499593  )
        74           Si  tau(  74) = (   0.2345674   0.8660254   0.5499593  )
        75           Si  tau(  75) = (   0.7345674   0.0000000   0.5499593  )
        76           Si  tau(  76) = (   0.7345674   0.8660254   0.5499593  )
        77           Si  tau(  77) = (   0.4845674   0.4330127   0.5499593  )
        78           Si  tau(  78) = (   0.4845674   1.2990381   0.5499593  )
        79           Si  tau(  79) = (   0.9845674   0.4330127   0.5499593  )
        80           Si  tau(  80) = (   0.9845674   1.2990381   0.5499593  )
        81           O   tau(  81) = (   0.1393135   0.7487106   0.6135845  )
        82           O   tau(  82) = (   0.1393135   1.6147360   0.6135845  )
        83           O   tau(  83) = (   0.6393135   0.7487106   0.6135845  )
        84           O   tau(  84) = (   0.6393135   1.6147360   0.6135845  )
        85           O   tau(  85) = (   0.3893135   0.3156979   0.6135845  )
        86           O   tau(  86) = (   0.3893135   1.1817233   0.6135845  )
        87           O   tau(  87) = (   0.8893135   0.3156979   0.6135845  )
        88           O   tau(  88) = (   0.8893135   1.1817233   0.6135845  )
        89           O   tau(  89) = (   0.3287456   0.0619916   0.6696538  )
        90           O   tau(  90) = (   0.3287456   0.9280170   0.6696538  )
        91           O   tau(  91) = (   0.8287456   0.0619916   0.6696538  )
        92           O   tau(  92) = (   0.8287456   0.9280170   0.6696538  )
        93           O   tau(  93) = (   0.0787456   0.4950043   0.6696538  )
        94           O   tau(  94) = (   0.0787456   1.3610297   0.6696538  )
        95           O   tau(  95) = (   0.5787456   0.4950043   0.6696538  )
        96           O   tau(  96) = (   0.5787456   1.3610297   0.6696538  )
        97           Si  tau(  97) = (   0.3827163   0.2031413   0.7332791  )
        98           Si  tau(  98) = (   0.3827163   1.0691667   0.7332791  )
        99           Si  tau(  99) = (   0.8827163   0.2031413   0.7332791  )
       100           Si  tau( 100) = (   0.8827163   1.0691667   0.7332791  )
       101           Si  tau( 101) = (   0.1327163   0.6361540   0.7332791  )
       102           Si  tau( 102) = (   0.1327163   1.5021794   0.7332791  )
       103           Si  tau( 103) = (   0.6327163   0.6361540   0.7332791  )
       104           Si  tau( 104) = (   0.6327163   1.5021794   0.7332791  )
       105           O   tau( 105) = (   0.0319409   0.1793064   0.7969043  )
       106           O   tau( 106) = (   0.0319409   1.0453318   0.7969043  )
       107           O   tau( 107) = (   0.5319409   0.1793064   0.7969043  )
       108           O   tau( 108) = (   0.5319409   1.0453318   0.7969043  )
       109           O   tau( 109) = (   0.2819409   0.6123191   0.7969043  )
       110           O   tau( 110) = (   0.2819409   1.4783445   0.7969043  )
       111           O   tau( 111) = (   0.7819409   0.6123191   0.7969043  )
       112           O   tau( 112) = (   0.7819409   1.4783445   0.7969043  )
       113           O   tau( 113) = (   0.0319409   0.6867190   0.8529736  )
       114           O   tau( 114) = (   0.0319409   1.5527444   0.8529736  )
       115           O   tau( 115) = (   0.5319409   0.6867190   0.8529736  )
       116           O   tau( 116) = (   0.5319409   1.5527444   0.8529736  )
       117           O   tau( 117) = (   0.2819409   0.2537063   0.8529736  )
       118           O   tau( 118) = (   0.2819409   1.1197317   0.8529736  )
       119           O   tau( 119) = (   0.7819409   0.2537063   0.8529736  )
       120           O   tau( 120) = (   0.7819409   1.1197317   0.8529736  )
       121           Si  tau( 121) = (   0.3827163   0.6628841   0.9165988  )
       122           Si  tau( 122) = (   0.3827163   1.5289095   0.9165988  )
       123           Si  tau( 123) = (   0.8827163   0.6628841   0.9165988  )
       124           Si  tau( 124) = (   0.8827163   1.5289095   0.9165988  )
       125           Si  tau( 125) = (   0.1327163   0.2298714   0.9165988  )
       126           Si  tau( 126) = (   0.1327163   1.0958968   0.9165988  )
       127           Si  tau( 127) = (   0.6327163   0.2298714   0.9165988  )
       128           Si  tau( 128) = (   0.6327163   1.0958968   0.9165988  )
       129           O   tau( 129) = (   0.3287456   0.8040338   0.9802241  )
       130           O   tau( 130) = (   0.3287456   1.6700592   0.9802241  )
       131           O   tau( 131) = (   0.8287456   0.8040338   0.9802241  )
       132           O   tau( 132) = (   0.8287456   1.6700592   0.9802241  )
       133           O   tau( 133) = (   0.0787456   0.3710211   0.9802241  )
       134           O   tau( 134) = (   0.0787456   1.2370465   0.9802241  )
       135           O   tau( 135) = (   0.5787456   0.3710211   0.9802241  )
       136           O   tau( 136) = (   0.5787456   1.2370465   0.9802241  )
       137           O   tau( 137) = (   0.1393135   0.1173148   1.0362934  )
       138           O   tau( 138) = (   0.1393135   0.9833403   1.0362934  )
       139           O   tau( 139) = (   0.6393135   0.1173148   1.0362934  )
       140           O   tau( 140) = (   0.6393135   0.9833403   1.0362934  )
       141           O   tau( 141) = (   0.3893135   0.5503275   1.0362934  )
       142           O   tau( 142) = (   0.3893135   1.4163530   1.0362934  )
       143           O   tau( 143) = (   0.8893135   0.5503275   1.0362934  )
       144           O   tau( 144) = (   0.8893135   1.4163530   1.0362934  )
       145           Si  tau( 145) = (   0.2345674   0.0000000   1.0999186  )
       146           Si  tau( 146) = (   0.2345674   0.8660254   1.0999186  )
       147           Si  tau( 147) = (   0.7345674   0.0000000   1.0999186  )
       148           Si  tau( 148) = (   0.7345674   0.8660254   1.0999186  )
       149           Si  tau( 149) = (   0.4845674   0.4330127   1.0999186  )
       150           Si  tau( 150) = (   0.4845674   1.2990381   1.0999186  )
       151           Si  tau( 151) = (   0.9845674   0.4330127   1.0999186  )
       152           Si  tau( 152) = (   0.9845674   1.2990381   1.0999186  )
       153           O   tau( 153) = (   0.1393135   0.7487106   1.1635438  )
       154           O   tau( 154) = (   0.1393135   1.6147360   1.1635438  )
       155           O   tau( 155) = (   0.6393135   0.7487106   1.1635438  )
       156           O   tau( 156) = (   0.6393135   1.6147360   1.1635438  )
       157           O   tau( 157) = (   0.3893135   0.3156979   1.1635438  )
       158           O   tau( 158) = (   0.3893135   1.1817233   1.1635438  )
       159           O   tau( 159) = (   0.8893135   0.3156979   1.1635438  )
       160           O   tau( 160) = (   0.8893135   1.1817233   1.1635438  )
       161           O   tau( 161) = (   0.3287456   0.0619916   1.2196131  )
       162           O   tau( 162) = (   0.3287456   0.9280170   1.2196131  )
       163           O   tau( 163) = (   0.8287456   0.0619916   1.2196131  )
       164           O   tau( 164) = (   0.8287456   0.9280170   1.2196131  )
       165           O   tau( 165) = (   0.0787456   0.4950043   1.2196131  )
       166           O   tau( 166) = (   0.0787456   1.3610297   1.2196131  )
       167           O   tau( 167) = (   0.5787456   0.4950043   1.2196131  )
       168           O   tau( 168) = (   0.5787456   1.3610297   1.2196131  )
       169           Si  tau( 169) = (   0.3827163   0.2031413   1.2832384  )
       170           Si  tau( 170) = (   0.3827163   1.0691667   1.2832384  )
       171           Si  tau( 171) = (   0.8827163   0.2031413   1.2832384  )
       172           Si  tau( 172) = (   0.8827163   1.0691667   1.2832384  )
       173           Si  tau( 173) = (   0.1327163   0.6361540   1.2832384  )
       174           Si  tau( 174) = (   0.1327163   1.5021794   1.2832384  )
       175           Si  tau( 175) = (   0.6327163   0.6361540   1.2832384  )
       176           Si  tau( 176) = (   0.6327163   1.5021794   1.2832384  )
       177           O   tau( 177) = (   0.0319409   0.1793064   1.3468636  )
       178           O   tau( 178) = (   0.0319409   1.0453318   1.3468636  )
       179           O   tau( 179) = (   0.5319409   0.1793064   1.3468636  )
       180           O   tau( 180) = (   0.5319409   1.0453318   1.3468636  )
       181           O   tau( 181) = (   0.2819409   0.6123191   1.3468636  )
       182           O   tau( 182) = (   0.2819409   1.4783445   1.3468636  )
       183           O   tau( 183) = (   0.7819409   0.6123191   1.3468636  )
       184           O   tau( 184) = (   0.7819409   1.4783445   1.3468636  )
       185           O   tau( 185) = (   0.0319409   0.6867190   1.4029329  )
       186           O   tau( 186) = (   0.0319409   1.5527444   1.4029329  )
       187           O   tau( 187) = (   0.5319409   0.6867190   1.4029329  )
       188           O   tau( 188) = (   0.5319409   1.5527444   1.4029329  )
       189           O   tau( 189) = (   0.2819409   0.2537063   1.4029329  )
       190           O   tau( 190) = (   0.2819409   1.1197317   1.4029329  )
       191           O   tau( 191) = (   0.7819409   0.2537063   1.4029329  )
       192           O   tau( 192) = (   0.7819409   1.1197317   1.4029329  )
       193           Si  tau( 193) = (   0.3827163   0.6628841   1.4665581  )
       194           Si  tau( 194) = (   0.3827163   1.5289095   1.4665581  )
       195           Si  tau( 195) = (   0.8827163   0.6628841   1.4665581  )
       196           Si  tau( 196) = (   0.8827163   1.5289095   1.4665581  )
       197           Si  tau( 197) = (   0.1327163   0.2298714   1.4665581  )
       198           Si  tau( 198) = (   0.1327163   1.0958968   1.4665581  )
       199           Si  tau( 199) = (   0.6327163   0.2298714   1.4665581  )
       200           Si  tau( 200) = (   0.6327163   1.0958968   1.4665581  )
       201           O   tau( 201) = (   0.3287456   0.8040338   1.5301834  )
       202           O   tau( 202) = (   0.3287456   1.6700592   1.5301834  )
       203           O   tau( 203) = (   0.8287456   0.8040338   1.5301834  )
       204           O   tau( 204) = (   0.8287456   1.6700592   1.5301834  )
       205           O   tau( 205) = (   0.0787456   0.3710211   1.5301834  )
       206           O   tau( 206) = (   0.0787456   1.2370465   1.5301834  )
       207           O   tau( 207) = (   0.5787456   0.3710211   1.5301834  )
       208           O   tau( 208) = (   0.5787456   1.2370465   1.5301834  )
       209           O   tau( 209) = (   0.1393135   0.1173148   1.5862527  )
       210           O   tau( 210) = (   0.1393135   0.9833403   1.5862527  )
       211           O   tau( 211) = (   0.6393135   0.1173148   1.5862527  )
       212           O   tau( 212) = (   0.6393135   0.9833403   1.5862527  )
       213           O   tau( 213) = (   0.3893135   0.5503275   1.5862527  )
       214           O   tau( 214) = (   0.3893135   1.4163530   1.5862527  )
       215           O   tau( 215) = (   0.8893135   0.5503275   1.5862527  )
       216           O   tau( 216) = (   0.8893135   1.4163530   1.5862527  )
       217           Si  tau( 217) = (   0.2345674   0.0000000   1.6498779  )
       218           Si  tau( 218) = (   0.2345674   0.8660254   1.6498779  )
       219           Si  tau( 219) = (   0.7345674   0.0000000   1.6498779  )
       220           Si  tau( 220) = (   0.7345674   0.8660254   1.6498779  )
       221           Si  tau( 221) = (   0.4845674   0.4330127   1.6498779  )
       222           Si  tau( 222) = (   0.4845674   1.2990381   1.6498779  )
       223           Si  tau( 223) = (   0.9845674   0.4330127   1.6498779  )
       224           Si  tau( 224) = (   0.9845674   1.2990381   1.6498779  )
       225           O   tau( 225) = (   0.1393135   0.7487106   1.7135031  )
       226           O   tau( 226) = (   0.1393135   1.6147360   1.7135031  )
       227           O   tau( 227) = (   0.6393135   0.7487106   1.7135031  )
       228           O   tau( 228) = (   0.6393135   1.6147360   1.7135031  )
       229           O   tau( 229) = (   0.3893135   0.3156979   1.7135031  )
       230           O   tau( 230) = (   0.3893135   1.1817233   1.7135031  )
       231           O   tau( 231) = (   0.8893135   0.3156979   1.7135031  )
       232           O   tau( 232) = (   0.8893135   1.1817233   1.7135031  )
       233           O   tau( 233) = (   0.3287456   0.0619916   1.7695724  )
       234           O   tau( 234) = (   0.3287456   0.9280170   1.7695724  )
       235           O   tau( 235) = (   0.8287456   0.0619916   1.7695724  )
       236           O   tau( 236) = (   0.8287456   0.9280170   1.7695724  )
       237           O   tau( 237) = (   0.0787456   0.4950043   1.7695724  )
       238           O   tau( 238) = (   0.0787456   1.3610297   1.7695724  )
       239           O   tau( 239) = (   0.5787456   0.4950043   1.7695724  )
       240           O   tau( 240) = (   0.5787456   1.3610297   1.7695724  )
       241           Si  tau( 241) = (   0.3827163   0.2031413   1.8331977  )
       242           Si  tau( 242) = (   0.3827163   1.0691667   1.8331977  )
       243           Si  tau( 243) = (   0.8827163   0.2031413   1.8331977  )
       244           Si  tau( 244) = (   0.8827163   1.0691667   1.8331977  )
       245           Si  tau( 245) = (   0.1327163   0.6361540   1.8331977  )
       246           Si  tau( 246) = (   0.1327163   1.5021794   1.8331977  )
       247           Si  tau( 247) = (   0.6327163   0.6361540   1.8331977  )
       248           Si  tau( 248) = (   0.6327163   1.5021794   1.8331977  )
       249           O   tau( 249) = (   0.0319409   0.1793064   1.8968229  )
       250           O   tau( 250) = (   0.0319409   1.0453318   1.8968229  )
       251           O   tau( 251) = (   0.5319409   0.1793064   1.8968229  )
       252           O   tau( 252) = (   0.5319409   1.0453318   1.8968229  )
       253           O   tau( 253) = (   0.2819409   0.6123191   1.8968229  )
       254           O   tau( 254) = (   0.2819409   1.4783445   1.8968229  )
       255           O   tau( 255) = (   0.7819409   0.6123191   1.8968229  )
       256           O   tau( 256) = (   0.7819409   1.4783445   1.8968229  )
       257           O   tau( 257) = (   0.0319409   0.6867190   1.9528922  )
       258           O   tau( 258) = (   0.0319409   1.5527444   1.9528922  )
       259           O   tau( 259) = (   0.5319409   0.6867190   1.9528922  )
       260           O   tau( 260) = (   0.5319409   1.5527444   1.9528922  )
       261           O   tau( 261) = (   0.2819409   0.2537063   1.9528922  )
       262           O   tau( 262) = (   0.2819409   1.1197317   1.9528922  )
       263           O   tau( 263) = (   0.7819409   0.2537063   1.9528922  )
       264           O   tau( 264) = (   0.7819409   1.1197317   1.9528922  )
       265           Si  tau( 265) = (   0.3827163   0.6628841   2.0165174  )
       266           Si  tau( 266) = (   0.3827163   1.5289095   2.0165174  )
       267           Si  tau( 267) = (   0.8827163   0.6628841   2.0165174  )
       268           Si  tau( 268) = (   0.8827163   1.5289095   2.0165174  )
       269           Si  tau( 269) = (   0.1327163   0.2298714   2.0165174  )
       270           Si  tau( 270) = (   0.1327163   1.0958968   2.0165174  )
       271           Si  tau( 271) = (   0.6327163   0.2298714   2.0165174  )
       272           Si  tau( 272) = (   0.6327163   1.0958968   2.0165174  )
       273           O   tau( 273) = (   0.3287456   0.8040338   2.0801427  )
       274           O   tau( 274) = (   0.3287456   1.6700592   2.0801427  )
       275           O   tau( 275) = (   0.8287456   0.8040338   2.0801427  )
       276           O   tau( 276) = (   0.8287456   1.6700592   2.0801427  )
       277           O   tau( 277) = (   0.0787456   0.3710211   2.0801427  )
       278           O   tau( 278) = (   0.0787456   1.2370465   2.0801427  )
       279           O   tau( 279) = (   0.5787456   0.3710211   2.0801427  )
       280           O   tau( 280) = (   0.5787456   1.2370465   2.0801427  )
       281           O   tau( 281) = (   0.1393135   0.1173148   2.1362120  )
       282           O   tau( 282) = (   0.1393135   0.9833403   2.1362120  )
       283           O   tau( 283) = (   0.6393135   0.1173148   2.1362120  )
       284           O   tau( 284) = (   0.6393135   0.9833403   2.1362120  )
       285           O   tau( 285) = (   0.3893135   0.5503275   2.1362120  )
       286           O   tau( 286) = (   0.3893135   1.4163530   2.1362120  )
       287           O   tau( 287) = (   0.8893135   0.5503275   2.1362120  )
       288           O   tau( 288) = (   0.8893135   1.4163530   2.1362120  )

   Crystallographic axes

     site n.     atom                  positions (cryst. coord.)
         1           Si  tau(   1) = (  0.2345674  0.0000000  0.0000000  )
         2           Si  tau(   2) = (  0.2345674  0.5000000  0.0000000  )
         3           Si  tau(   3) = (  0.7345674  0.0000000  0.0000000  )
         4           Si  tau(   4) = (  0.7345674  0.5000000  0.0000000  )
         5           Si  tau(   5) = (  0.4845674  0.2500000  0.0000000  )
         6           Si  tau(   6) = (  0.4845674  0.7500000  0.0000000  )
         7           Si  tau(   7) = (  0.9845674  0.2500000  0.0000000  )
         8           Si  tau(   8) = (  0.9845674  0.7500000  0.0000000  )
         9           O   tau(   9) = (  0.1393135  0.4322683  0.0289227  )
        10           O   tau(  10) = (  0.1393135  0.9322683  0.0289227  )
        11           O   tau(  11) = (  0.6393135  0.4322683  0.0289227  )
        12           O   tau(  12) = (  0.6393135  0.9322683  0.0289227  )
        13           O   tau(  13) = (  0.3893135  0.1822683  0.0289227  )
        14           O   tau(  14) = (  0.3893135  0.6822683  0.0289227  )
        15           O   tau(  15) = (  0.8893135  0.1822683  0.0289227  )
        16           O   tau(  16) = (  0.8893135  0.6822683  0.0289227  )
        17           O   tau(  17) = (  0.3287456  0.0357909  0.0544106  )
        18           O   tau(  18) = (  0.3287456  0.5357909  0.0544106  )
        19           O   tau(  19) = (  0.8287456  0.0357909  0.0544106  )
        20           O   tau(  20) = (  0.8287456  0.5357909  0.0544106  )
        21           O   tau(  21) = (  0.0787456  0.2857909  0.0544106  )
        22           O   tau(  22) = (  0.0787456  0.7857909  0.0544106  )
        23           O   tau(  23) = (  0.5787456  0.2857909  0.0544106  )
        24           O   tau(  24) = (  0.5787456  0.7857909  0.0544106  )
        25           Si  tau(  25) = (  0.3827163  0.1172837  0.0833333  )
        26           Si  tau(  26) = (  0.3827163  0.6172837  0.0833333  )
        27           Si  tau(  27) = (  0.8827163  0.1172837  0.0833333  )
        28           Si  tau(  28) = (  0.8827163  0.6172837  0.0833333  )
        29           Si  tau(  29) = (  0.1327163  0.3672837  0.0833333  )
        30           Si  tau(  30) = (  0.1327163  0.8672837  0.0833333  )
        31           Si  tau(  31) = (  0.6327163  0.3672837  0.0833333  )
        32           Si  tau(  32) = (  0.6327163  0.8672837  0.0833333  )
        33           O   tau(  33) = (  0.0319409  0.1035226  0.1122560  )
        34           O   tau(  34) = (  0.0319409  0.6035226  0.1122560  )
        35           O   tau(  35) = (  0.5319409  0.1035226  0.1122560  )
        36           O   tau(  36) = (  0.5319409  0.6035226  0.1122560  )
        37           O   tau(  37) = (  0.2819409  0.3535226  0.1122560  )
        38           O   tau(  38) = (  0.2819409  0.8535226  0.1122560  )
        39           O   tau(  39) = (  0.7819409  0.3535226  0.1122560  )
        40           O   tau(  40) = (  0.7819409  0.8535226  0.1122560  )
        41           O   tau(  41) = (  0.0319409  0.3964774  0.1377440  )
        42           O   tau(  42) = (  0.0319409  0.8964774  0.1377440  )
        43           O   tau(  43) = (  0.5319409  0.3964774  0.1377440  )
        44           O   tau(  44) = (  0.5319409  0.8964774  0.1377440  )
        45           O   tau(  45) = (  0.2819409  0.1464774  0.1377440  )
        46           O   tau(  46) = (  0.2819409  0.6464774  0.1377440  )
        47           O   tau(  47) = (  0.7819409  0.1464774  0.1377440  )
        48           O   tau(  48) = (  0.7819409  0.6464774  0.1377440  )
        49           Si  tau(  49) = (  0.3827163  0.3827163  0.1666667  )
        50           Si  tau(  50) = (  0.3827163  0.8827163  0.1666667  )
        51           Si  tau(  51) = (  0.8827163  0.3827163  0.1666667  )
        52           Si  tau(  52) = (  0.8827163  0.8827163  0.1666667  )
        53           Si  tau(  53) = (  0.1327163  0.1327163  0.1666667  )
        54           Si  tau(  54) = (  0.1327163  0.6327163  0.1666667  )
        55           Si  tau(  55) = (  0.6327163  0.1327163  0.1666667  )
        56           Si  tau(  56) = (  0.6327163  0.6327163  0.1666667  )
        57           O   tau(  57) = (  0.3287456  0.4642091  0.1955894  )
        58           O   tau(  58) = (  0.3287456  0.9642091  0.1955894  )
        59           O   tau(  59) = (  0.8287456  0.4642091  0.1955894  )
        60           O   tau(  60) = (  0.8287456  0.9642091  0.1955894  )
        61           O   tau(  61) = (  0.0787456  0.2142091  0.1955894  )
        62           O   tau(  62) = (  0.0787456  0.7142091  0.1955894  )
        63           O   tau(  63) = (  0.5787456  0.2142091  0.1955894  )
        64           O   tau(  64) = (  0.5787456  0.7142091  0.1955894  )
        65           O   tau(  65) = (  0.1393135  0.0677317  0.2210773  )
        66           O   tau(  66) = (  0.1393135  0.5677318  0.2210773  )
        67           O   tau(  67) = (  0.6393135  0.0677317  0.2210773  )
        68           O   tau(  68) = (  0.6393135  0.5677318  0.2210773  )
        69           O   tau(  69) = (  0.3893135  0.3177317  0.2210773  )
        70           O   tau(  70) = (  0.3893135  0.8177318  0.2210773  )
        71           O   tau(  71) = (  0.8893135  0.3177317  0.2210773  )
        72           O   tau(  72) = (  0.8893135  0.8177318  0.2210773  )
        73           Si  tau(  73) = (  0.2345674  0.0000000  0.2500000  )
        74           Si  tau(  74) = (  0.2345674  0.5000000  0.2500000  )
        75           Si  tau(  75) = (  0.7345674  0.0000000  0.2500000  )
        76           Si  tau(  76) = (  0.7345674  0.5000000  0.2500000  )
        77           Si  tau(  77) = (  0.4845674  0.2500000  0.2500000  )
        78           Si  tau(  78) = (  0.4845674  0.7500000  0.2500000  )
        79           Si  tau(  79) = (  0.9845674  0.2500000  0.2500000  )
        80           Si  tau(  80) = (  0.9845674  0.7500000  0.2500000  )
        81           O   tau(  81) = (  0.1393135  0.4322683  0.2789227  )
        82           O   tau(  82) = (  0.1393135  0.9322683  0.2789227  )
        83           O   tau(  83) = (  0.6393135  0.4322683  0.2789227  )
        84           O   tau(  84) = (  0.6393135  0.9322683  0.2789227  )
        85           O   tau(  85) = (  0.3893135  0.1822683  0.2789227  )
        86           O   tau(  86) = (  0.3893135  0.6822683  0.2789227  )
        87           O   tau(  87) = (  0.8893135  0.1822683  0.2789227  )
        88           O   tau(  88) = (  0.8893135  0.6822683  0.2789227  )
        89           O   tau(  89) = (  0.3287456  0.0357909  0.3044106  )
        90           O   tau(  90) = (  0.3287456  0.5357909  0.3044106  )
        91           O   tau(  91) = (  0.8287456  0.0357909  0.3044106  )
        92           O   tau(  92) = (  0.8287456  0.5357909  0.3044106  )
        93           O   tau(  93) = (  0.0787456  0.2857909  0.3044106  )
        94           O   tau(  94) = (  0.0787456  0.7857909  0.3044106  )
        95           O   tau(  95) = (  0.5787456  0.2857909  0.3044106  )
        96           O   tau(  96) = (  0.5787456  0.7857909  0.3044106  )
        97           Si  tau(  97) = (  0.3827163  0.1172837  0.3333333  )
        98           Si  tau(  98) = (  0.3827163  0.6172837  0.3333333  )
        99           Si  tau(  99) = (  0.8827163  0.1172837  0.3333333  )
       100           Si  tau( 100) = (  0.8827163  0.6172837  0.3333333  )
       101           Si  tau( 101) = (  0.1327163  0.3672837  0.3333333  )
       102           Si  tau( 102) = (  0.1327163  0.8672837  0.3333333  )
       103           Si  tau( 103) = (  0.6327163  0.3672837  0.3333333  )
       104           Si  tau( 104) = (  0.6327163  0.8672837  0.3333333  )
       105           O   tau( 105) = (  0.0319409  0.1035226  0.3622560  )
       106           O   tau( 106) = (  0.0319409  0.6035226  0.3622560  )
       107           O   tau( 107) = (  0.5319409  0.1035226  0.3622560  )
       108           O   tau( 108) = (  0.5319409  0.6035226  0.3622560  )
       109           O   tau( 109) = (  0.2819409  0.3535226  0.3622560  )
       110           O   tau( 110) = (  0.2819409  0.8535226  0.3622560  )
       111           O   tau( 111) = (  0.7819409  0.3535226  0.3622560  )
       112           O   tau( 112) = (  0.7819409  0.8535226  0.3622560  )
       113           O   tau( 113) = (  0.0319409  0.3964774  0.3877440  )
       114           O   tau( 114) = (  0.0319409  0.8964774  0.3877440  )
       115           O   tau( 115) = (  0.5319409  0.3964774  0.3877440  )
       116           O   tau( 116) = (  0.5319409  0.8964774  0.3877440  )
       117           O   tau( 117) = (  0.2819409  0.1464774  0.3877440  )
       118           O   tau( 118) = (  0.2819409  0.6464774  0.3877440  )
       119           O   tau( 119) = (  0.7819409  0.1464774  0.3877440  )
       120           O   tau( 120) = (  0.7819409  0.6464774  0.3877440  )
       121           Si  tau( 121) = (  0.3827163  0.3827163  0.4166667  )
       122           Si  tau( 122) = (  0.3827163  0.8827163  0.4166667  )
       123           Si  tau( 123) = (  0.8827163  0.3827163  0.4166667  )
       124           Si  tau( 124) = (  0.8827163  0.8827163  0.4166667  )
       125           Si  tau( 125) = (  0.1327163  0.1327163  0.4166667  )
       126           Si  tau( 126) = (  0.1327163  0.6327163  0.4166667  )
       127           Si  tau( 127) = (  0.6327163  0.1327163  0.4166667  )
       128           Si  tau( 128) = (  0.6327163  0.6327163  0.4166667  )
       129           O   tau( 129) = (  0.3287456  0.4642091  0.4455894  )
       130           O   tau( 130) = (  0.3287456  0.9642091  0.4455894  )
       131           O   tau( 131) = (  0.8287456  0.4642091  0.4455894  )
       132           O   tau( 132) = (  0.8287456  0.9642091  0.4455894  )
       133           O   tau( 133) = (  0.0787456  0.2142091  0.4455894  )
       134           O   tau( 134) = (  0.0787456  0.7142091  0.4455894  )
       135           O   tau( 135) = (  0.5787456  0.2142091  0.4455894  )
       136           O   tau( 136) = (  0.5787456  0.7142091  0.4455894  )
       137           O   tau( 137) = (  0.1393135  0.0677317  0.4710773  )
       138           O   tau( 138) = (  0.1393135  0.5677318  0.4710773  )
       139           O   tau( 139) = (  0.6393135  0.0677317  0.4710773  )
       140           O   tau( 140) = (  0.6393135  0.5677318  0.4710773  )
       141           O   tau( 141) = (  0.3893135  0.3177317  0.4710773  )
       142           O   tau( 142) = (  0.3893135  0.8177318  0.4710773  )
       143           O   tau( 143) = (  0.8893135  0.3177317  0.4710773  )
       144           O   tau( 144) = (  0.8893135  0.8177318  0.4710773  )
       145           Si  tau( 145) = (  0.2345674  0.0000000  0.5000000  )
       146           Si  tau( 146) = (  0.2345674  0.5000000  0.5000000  )
       147           Si  tau( 147) = (  0.7345674  0.0000000  0.5000000  )
       148           Si  tau( 148) = (  0.7345674  0.5000000  0.5000000  )
       149           Si  tau( 149) = (  0.4845674  0.2500000  0.5000000  )
       150           Si  tau( 150) = (  0.4845674  0.7500000  0.5000000  )
       151           Si  tau( 151) = (  0.9845674  0.2500000  0.5000000  )
       152           Si  tau( 152) = (  0.9845674  0.7500000  0.5000000  )
       153           O   tau( 153) = (  0.1393135  0.4322683  0.5289227  )
       154           O   tau( 154) = (  0.1393135  0.9322683  0.5289227  )
       155           O   tau( 155) = (  0.6393135  0.4322683  0.5289227  )
       156           O   tau( 156) = (  0.6393135  0.9322683  0.5289227  )
       157           O   tau( 157) = (  0.3893135  0.1822683  0.5289227  )
       158           O   tau( 158) = (  0.3893135  0.6822683  0.5289227  )
       159           O   tau( 159) = (  0.8893135  0.1822683  0.5289227  )
       160           O   tau( 160) = (  0.8893135  0.6822683  0.5289227  )
       161           O   tau( 161) = (  0.3287456  0.0357909  0.5544106  )
       162           O   tau( 162) = (  0.3287456  0.5357909  0.5544106  )
       163           O   tau( 163) = (  0.8287456  0.0357909  0.5544106  )
       164           O   tau( 164) = (  0.8287456  0.5357909  0.5544106  )
       165           O   tau( 165) = (  0.0787456  0.2857909  0.5544106  )
       166           O   tau( 166) = (  0.0787456  0.7857909  0.5544106  )
       167           O   tau( 167) = (  0.5787456  0.2857909  0.5544106  )
       168           O   tau( 168) = (  0.5787456  0.7857909  0.5544106  )
       169           Si  tau( 169) = (  0.3827163  0.1172837  0.5833333  )
       170           Si  tau( 170) = (  0.3827163  0.6172837  0.5833333  )
       171           Si  tau( 171) = (  0.8827163  0.1172837  0.5833333  )
       172           Si  tau( 172) = (  0.8827163  0.6172837  0.5833333  )
       173           Si  tau( 173) = (  0.1327163  0.3672837  0.5833333  )
       174           Si  tau( 174) = (  0.1327163  0.8672837  0.5833333  )
       175           Si  tau( 175) = (  0.6327163  0.3672837  0.5833333  )
       176           Si  tau( 176) = (  0.6327163  0.8672837  0.5833333  )
       177           O   tau( 177) = (  0.0319409  0.1035226  0.6122560  )
       178           O   tau( 178) = (  0.0319409  0.6035226  0.6122560  )
       179           O   tau( 179) = (  0.5319409  0.1035226  0.6122560  )
       180           O   tau( 180) = (  0.5319409  0.6035226  0.6122560  )
       181           O   tau( 181) = (  0.2819409  0.3535226  0.6122560  )
       182           O   tau( 182) = (  0.2819409  0.8535226  0.6122560  )
       183           O   tau( 183) = (  0.7819409  0.3535226  0.6122560  )
       184           O   tau( 184) = (  0.7819409  0.8535226  0.6122560  )
       185           O   tau( 185) = (  0.0319409  0.3964774  0.6377440  )
       186           O   tau( 186) = (  0.0319409  0.8964774  0.6377440  )
       187           O   tau( 187) = (  0.5319409  0.3964774  0.6377440  )
       188           O   tau( 188) = (  0.5319409  0.8964774  0.6377440  )
       189           O   tau( 189) = (  0.2819409  0.1464774  0.6377440  )
       190           O   tau( 190) = (  0.2819409  0.6464774  0.6377440  )
       191           O   tau( 191) = (  0.7819409  0.1464774  0.6377440  )
       192           O   tau( 192) = (  0.7819409  0.6464774  0.6377440  )
       193           Si  tau( 193) = (  0.3827163  0.3827163  0.6666667  )
       194           Si  tau( 194) = (  0.3827163  0.8827163  0.6666667  )
       195           Si  tau( 195) = (  0.8827163  0.3827163  0.6666667  )
       196           Si  tau( 196) = (  0.8827163  0.8827163  0.6666667  )
       197           Si  tau( 197) = (  0.1327163  0.1327163  0.6666667  )
       198           Si  tau( 198) = (  0.1327163  0.6327163  0.6666667  )
       199           Si  tau( 199) = (  0.6327163  0.1327163  0.6666667  )
       200           Si  tau( 200) = (  0.6327163  0.6327163  0.6666667  )
       201           O   tau( 201) = (  0.3287456  0.4642091  0.6955894  )
       202           O   tau( 202) = (  0.3287456  0.9642091  0.6955894  )
       203           O   tau( 203) = (  0.8287456  0.4642091  0.6955894  )
       204           O   tau( 204) = (  0.8287456  0.9642091  0.6955894  )
       205           O   tau( 205) = (  0.0787456  0.2142091  0.6955894  )
       206           O   tau( 206) = (  0.0787456  0.7142091  0.6955894  )
       207           O   tau( 207) = (  0.5787456  0.2142091  0.6955894  )
       208           O   tau( 208) = (  0.5787456  0.7142091  0.6955894  )
       209           O   tau( 209) = (  0.1393135  0.0677317  0.7210773  )
       210           O   tau( 210) = (  0.1393135  0.5677318  0.7210773  )
       211           O   tau( 211) = (  0.6393135  0.0677317  0.7210773  )
       212           O   tau( 212) = (  0.6393135  0.5677318  0.7210773  )
       213           O   tau( 213) = (  0.3893135  0.3177317  0.7210773  )
       214           O   tau( 214) = (  0.3893135  0.8177318  0.7210773  )
       215           O   tau( 215) = (  0.8893135  0.3177317  0.7210773  )
       216           O   tau( 216) = (  0.8893135  0.8177318  0.7210773  )
       217           Si  tau( 217) = (  0.2345674  0.0000000  0.7500000  )
       218           Si  tau( 218) = (  0.2345674  0.5000000  0.7500000  )
       219           Si  tau( 219) = (  0.7345674  0.0000000  0.7500000  )
       220           Si  tau( 220) = (  0.7345674  0.5000000  0.7500000  )
       221           Si  tau( 221) = (  0.4845674  0.2500000  0.7500000  )
       222           Si  tau( 222) = (  0.4845674  0.7500000  0.7500000  )
       223           Si  tau( 223) = (  0.9845674  0.2500000  0.7500000  )
       224           Si  tau( 224) = (  0.9845674  0.7500000  0.7500000  )
       225           O   tau( 225) = (  0.1393135  0.4322683  0.7789227  )
       226           O   tau( 226) = (  0.1393135  0.9322683  0.7789227  )
       227           O   tau( 227) = (  0.6393135  0.4322683  0.7789227  )
       228           O   tau( 228) = (  0.6393135  0.9322683  0.7789227  )
       229           O   tau( 229) = (  0.3893135  0.1822683  0.7789227  )
       230           O   tau( 230) = (  0.3893135  0.6822683  0.7789227  )
       231           O   tau( 231) = (  0.8893135  0.1822683  0.7789227  )
       232           O   tau( 232) = (  0.8893135  0.6822683  0.7789227  )
       233           O   tau( 233) = (  0.3287456  0.0357909  0.8044106  )
       234           O   tau( 234) = (  0.3287456  0.5357909  0.8044106  )
       235           O   tau( 235) = (  0.8287456  0.0357909  0.8044106  )
       236           O   tau( 236) = (  0.8287456  0.5357909  0.8044106  )
       237           O   tau( 237) = (  0.0787456  0.2857909  0.8044106  )
       238           O   tau( 238) = (  0.0787456  0.7857909  0.8044106  )
       239           O   tau( 239) = (  0.5787456  0.2857909  0.8044106  )
       240           O   tau( 240) = (  0.5787456  0.7857909  0.8044106  )
       241           Si  tau( 241) = (  0.3827163  0.1172837  0.8333333  )
       242           Si  tau( 242) = (  0.3827163  0.6172837  0.8333333  )
       243           Si  tau( 243) = (  0.8827163  0.1172837  0.8333333  )
       244           Si  tau( 244) = (  0.8827163  0.6172837  0.8333333  )
       245           Si  tau( 245) = (  0.1327163  0.3672837  0.8333333  )
       246           Si  tau( 246) = (  0.1327163  0.8672837  0.8333333  )
       247           Si  tau( 247) = (  0.6327163  0.3672837  0.8333333  )
       248           Si  tau( 248) = (  0.6327163  0.8672837  0.8333333  )
       249           O   tau( 249) = (  0.0319409  0.1035226  0.8622560  )
       250           O   tau( 250) = (  0.0319409  0.6035226  0.8622560  )
       251           O   tau( 251) = (  0.5319409  0.1035226  0.8622560  )
       252           O   tau( 252) = (  0.5319409  0.6035226  0.8622560  )
       253           O   tau( 253) = (  0.2819409  0.3535226  0.8622560  )
       254           O   tau( 254) = (  0.2819409  0.8535226  0.8622560  )
       255           O   tau( 255) = (  0.7819409  0.3535226  0.8622560  )
       256           O   tau( 256) = (  0.7819409  0.8535226  0.8622560  )
       257           O   tau( 257) = (  0.0319409  0.3964774  0.8877440  )
       258           O   tau( 258) = (  0.0319409  0.8964774  0.8877440  )
       259           O   tau( 259) = (  0.5319409  0.3964774  0.8877440  )
       260           O   tau( 260) = (  0.5319409  0.8964774  0.8877440  )
       261           O   tau( 261) = (  0.2819409  0.1464774  0.8877440  )
       262           O   tau( 262) = (  0.2819409  0.6464774  0.8877440  )
       263           O   tau( 263) = (  0.7819409  0.1464774  0.8877440  )
       264           O   tau( 264) = (  0.7819409  0.6464774  0.8877440  )
       265           Si  tau( 265) = (  0.3827163  0.3827163  0.9166667  )
       266           Si  tau( 266) = (  0.3827163  0.8827163  0.9166667  )
       267           Si  tau( 267) = (  0.8827163  0.3827163  0.9166667  )
       268           Si  tau( 268) = (  0.8827163  0.8827163  0.9166667  )
       269           Si  tau( 269) = (  0.1327163  0.1327163  0.9166667  )
       270           Si  tau( 270) = (  0.1327163  0.6327163  0.9166667  )
       271           Si  tau( 271) = (  0.6327163  0.1327163  0.9166667  )
       272           Si  tau( 272) = (  0.6327163  0.6327163  0.9166667  )
       273           O   tau( 273) = (  0.3287456  0.4642091  0.9455894  )
       274           O   tau( 274) = (  0.3287456  0.9642091  0.9455894  )
       275           O   tau( 275) = (  0.8287456  0.4642091  0.9455894  )
       276           O   tau( 276) = (  0.8287456  0.9642091  0.9455894  )
       277           O   tau( 277) = (  0.0787456  0.2142091  0.9455894  )
       278           O   tau( 278) = (  0.0787456  0.7142091  0.9455894  )
       279           O   tau( 279) = (  0.5787456  0.2142091  0.9455894  )
       280           O   tau( 280) = (  0.5787456  0.7142091  0.9455894  )
       281           O   tau( 281) = (  0.1393135  0.0677317  0.9710773  )
       282           O   tau( 282) = (  0.1393135  0.5677318  0.9710773  )
       283           O   tau( 283) = (  0.6393135  0.0677317  0.9710773  )
       284           O   tau( 284) = (  0.6393135  0.5677318  0.9710773  )
       285           O   tau( 285) = (  0.3893135  0.3177317  0.9710773  )
       286           O   tau( 286) = (  0.3893135  0.8177318  0.9710773  )
       287           O   tau( 287) = (  0.8893135  0.3177317  0.9710773  )
       288           O   tau( 288) = (  0.8893135  0.8177318  0.9710773  )

     number of k points=     2  Marzari-Vanderbilt smearing, width (Ry)=  0.0100
                       cart. coord. in units 2pi/alat
        k(    1) = (   0.2500000   0.1443376   0.1136448), wk =   1.0000000
        k(    2) = (  -0.2500000   0.1443376  -0.1136448), wk =   1.0000000

                       cryst. coord.
        k(    1) = (   0.2500000   0.2500000   0.2500000), wk =   1.0000000
        k(    2) = (  -0.2500000   0.2500000  -0.2500000), wk =   1.0000000

     Dense  grid:  2359315 G-vectors     FFT dimensions: ( 108, 192, 240)

     Smooth grid:   834327 G-vectors     FFT dimensions: (  75, 135, 180)

     Dynamical RAM for                 wfc:     733.51 MB

     Dynamical RAM for     wfc (w. buffer):     733.51 MB

     Dynamical RAM for           str. fact:      36.00 MB

     Dynamical RAM for           local pot:       0.00 MB

     Dynamical RAM for          nlocal pot:    1832.98 MB

     Dynamical RAM for                qrad:       0.82 MB

     Dynamical RAM for          rho,v,vnew:     110.95 MB

     Dynamical RAM for               rhoin:      36.98 MB

     Dynamical RAM for            rho*nmix:     288.00 MB

     Dynamical RAM for           G-vectors:      70.68 MB

     Dynamical RAM for          h,s,v(r/c):     155.66 MB

     Dynamical RAM for          <psi|beta>:      32.41 MB

     Dynamical RAM for                 psi:    1467.02 MB

     Dynamical RAM for                hpsi:    1467.02 MB

     Dynamical RAM for                spsi:    1467.02 MB

     Dynamical RAM for      wfcinit/wfcrot:    1863.36 MB

     Dynamical RAM for           addusdens:    1071.00 MB

     Dynamical RAM for          addusforce:    2785.67 MB

     Estimated static dynamical RAM per process >       2.90 GB

     Estimated max dynamical RAM per process >       7.66 GB

     Estimated total dynamical RAM >      59.62 GB

     Check: negative core charge=   -0.000035

     Initial potential from superposition of free atoms

     starting charge 1535.94785, renormalised to 1536.00000
     Starting wfcs are 1152 randomized atomic wfcs

     total cpu time spent up to now is       18.9 secs

     Self-consistent Calculation
[tb_dev] Currently allocated     3.02E+02 Mbytes, locked:    0 /  11
[tb_pin] Currently allocated     0.00E+00 Mbytes, locked:    0 /   0

     iteration #  1     ecut=    40.00 Ry     beta= 0.70
     Davidson diagonalization with overlap

---- Real-time Memory Report at c_bands before calling an iterative solver
          3228 MiB given to the printing process from OS
         -1013 MiB allocation reported by mallinfo(arena+hblkhd)
        261837 MiB available memory on the node where the printing process lives
     GPU memory used/free/total (MiB): 4196 / 11964 / 16160
------------------
     ethr =  1.00E-02,  avg # of iterations =  3.0

     total cpu time spent up to now is       26.6 secs

     total energy              =   -7532.00922596 Ry
     estimated scf accuracy    <      68.99224662 Ry
[tb_dev] Currently allocated     1.78E+03 Mbytes, locked:    0 /  15
[tb_pin] Currently allocated     5.19E+01 Mbytes, locked:    0 /   1

     iteration #  2     ecut=    40.00 Ry     beta= 0.70
     Davidson diagonalization with overlap

---- Real-time Memory Report at c_bands before calling an iterative solver
          3444 MiB given to the printing process from OS
          -834 MiB allocation reported by mallinfo(arena+hblkhd)
        255100 MiB available memory on the node where the printing process lives
     GPU memory used/free/total (MiB): 5726 / 10434 / 16160
------------------
     ethr =  4.49E-03,  avg # of iterations =  2.0

     total cpu time spent up to now is       33.1 secs

     total energy              =   -7555.13474736 Ry
     estimated scf accuracy    <      36.72026929 Ry
[tb_dev] Currently allocated     1.78E+03 Mbytes, locked:    0 /  15
[tb_pin] Currently allocated     5.19E+01 Mbytes, locked:    0 /   1

     iteration #  3     ecut=    40.00 Ry     beta= 0.70
     Davidson diagonalization with overlap

---- Real-time Memory Report at c_bands before calling an iterative solver
          3467 MiB given to the printing process from OS
          -822 MiB allocation reported by mallinfo(arena+hblkhd)
        254901 MiB available memory on the node where the printing process lives
     GPU memory used/free/total (MiB): 5726 / 10434 / 16160
------------------
     ethr =  2.39E-03,  avg # of iterations =  2.0

     total cpu time spent up to now is       39.1 secs

     total energy              =   -7560.13592058 Ry
     estimated scf accuracy    <       0.74778390 Ry
[tb_dev] Currently allocated     1.78E+03 Mbytes, locked:    0 /  15
[tb_pin] Currently allocated     5.19E+01 Mbytes, locked:    0 /   1

     iteration #  4     ecut=    40.00 Ry     beta= 0.70
     Davidson diagonalization with overlap

---- Real-time Memory Report at c_bands before calling an iterative solver
          3514 MiB given to the printing process from OS
          -840 MiB allocation reported by mallinfo(arena+hblkhd)
        254889 MiB available memory on the node where the printing process lives
     GPU memory used/free/total (MiB): 5726 / 10434 / 16160
------------------
     c_bands:  3 eigenvalues not converged
     ethr =  4.87E-05,  avg # of iterations = 20.0

     total cpu time spent up to now is       51.0 secs

     total energy              =   -7560.65808553 Ry
     estimated scf accuracy    <       0.61272549 Ry
[tb_dev] Currently allocated     1.78E+03 Mbytes, locked:    0 /  15
[tb_pin] Currently allocated     5.19E+01 Mbytes, locked:    0 /   1

     iteration #  5     ecut=    40.00 Ry     beta= 0.70
     Davidson diagonalization with overlap

---- Real-time Memory Report at c_bands before calling an iterative solver
          3514 MiB given to the printing process from OS
          -790 MiB allocation reported by mallinfo(arena+hblkhd)
        254806 MiB available memory on the node where the printing process lives
     GPU memory used/free/total (MiB): 5726 / 10434 / 16160
------------------
     ethr =  3.99E-05,  avg # of iterations =  2.0

     total cpu time spent up to now is       56.4 secs

     total energy              =   -7560.65764913 Ry
     estimated scf accuracy    <       0.10704958 Ry
[tb_dev] Currently allocated     1.78E+03 Mbytes, locked:    0 /  15
[tb_pin] Currently allocated     5.19E+01 Mbytes, locked:    0 /   1

     iteration #  6     ecut=    40.00 Ry     beta= 0.70
     Davidson diagonalization with overlap

---- Real-time Memory Report at c_bands before calling an iterative solver
          3514 MiB given to the printing process from OS
          -777 MiB allocation reported by mallinfo(arena+hblkhd)
        254873 MiB available memory on the node where the printing process lives
     GPU memory used/free/total (MiB): 5726 / 10434 / 16160
------------------
     c_bands:  1 eigenvalues not converged
     ethr =  6.97E-06,  avg # of iterations = 20.0

     total cpu time spent up to now is       66.6 secs

     total energy              =   -7560.67983674 Ry
     estimated scf accuracy    <       0.00396722 Ry
[tb_dev] Currently allocated     1.78E+03 Mbytes, locked:    0 /  15
[tb_pin] Currently allocated     5.19E+01 Mbytes, locked:    0 /   1

     iteration #  7     ecut=    40.00 Ry     beta= 0.70
     Davidson diagonalization with overlap

---- Real-time Memory Report at c_bands before calling an iterative solver
          3533 MiB given to the printing process from OS
          -758 MiB allocation reported by mallinfo(arena+hblkhd)
        254822 MiB available memory on the node where the printing process lives
     GPU memory used/free/total (MiB): 5726 / 10434 / 16160
------------------
     ethr =  2.58E-07,  avg # of iterations = 20.0

     total cpu time spent up to now is       76.0 secs

     total energy              =   -7560.68150410 Ry
     estimated scf accuracy    <       0.00043589 Ry
[tb_dev] Currently allocated     1.78E+03 Mbytes, locked:    0 /  15
[tb_pin] Currently allocated     5.19E+01 Mbytes, locked:    0 /   1

     iteration #  8     ecut=    40.00 Ry     beta= 0.70
     Davidson diagonalization with overlap

---- Real-time Memory Report at c_bands before calling an iterative solver
          3547 MiB given to the printing process from OS
          -745 MiB allocation reported by mallinfo(arena+hblkhd)
        254831 MiB available memory on the node where the printing process lives
     GPU memory used/free/total (MiB): 5726 / 10434 / 16160
------------------
     ethr =  2.84E-08,  avg # of iterations =  2.0

     total cpu time spent up to now is       81.6 secs

     total energy              =   -7560.68145201 Ry
     estimated scf accuracy    <       0.00024754 Ry
[tb_dev] Currently allocated     1.78E+03 Mbytes, locked:    0 /  15
[tb_pin] Currently allocated     5.19E+01 Mbytes, locked:    0 /   1

     iteration #  9     ecut=    40.00 Ry     beta= 0.70
     Davidson diagonalization with overlap

---- Real-time Memory Report at c_bands before calling an iterative solver
          3567 MiB given to the printing process from OS
          -726 MiB allocation reported by mallinfo(arena+hblkhd)
        254660 MiB available memory on the node where the printing process lives
     GPU memory used/free/total (MiB): 5726 / 10434 / 16160
------------------
     ethr =  1.61E-08,  avg # of iterations =  2.0

     total cpu time spent up to now is       87.2 secs

     total energy              =   -7560.68145539 Ry
     estimated scf accuracy    <       0.00004788 Ry
[tb_dev] Currently allocated     1.78E+03 Mbytes, locked:    0 /  15
[tb_pin] Currently allocated     5.19E+01 Mbytes, locked:    0 /   1

     iteration # 10     ecut=    40.00 Ry     beta= 0.70
     Davidson diagonalization with overlap

---- Real-time Memory Report at c_bands before calling an iterative solver
          3590 MiB given to the printing process from OS
          -757 MiB allocation reported by mallinfo(arena+hblkhd)
        254674 MiB available memory on the node where the printing process lives
     GPU memory used/free/total (MiB): 5726 / 10434 / 16160
------------------
     ethr =  3.12E-09,  avg # of iterations =  4.0

     total cpu time spent up to now is       93.9 secs

     total energy              =   -7560.68146701 Ry
     estimated scf accuracy    <       0.00000239 Ry
[tb_dev] Currently allocated     1.78E+03 Mbytes, locked:    0 /  15
[tb_pin] Currently allocated     5.19E+01 Mbytes, locked:    0 /   1

     iteration # 11     ecut=    40.00 Ry     beta= 0.70
     Davidson diagonalization with overlap

---- Real-time Memory Report at c_bands before calling an iterative solver
          3593 MiB given to the printing process from OS
          -757 MiB allocation reported by mallinfo(arena+hblkhd)
        254711 MiB available memory on the node where the printing process lives
     GPU memory used/free/total (MiB): 5726 / 10434 / 16160
------------------
     ethr =  1.56E-10,  avg # of iterations =  5.0

     total cpu time spent up to now is      102.3 secs

     total energy              =   -7560.68146841 Ry
     estimated scf accuracy    <       0.00000016 Ry
[tb_dev] Currently allocated     1.78E+03 Mbytes, locked:    0 /  15
[tb_pin] Currently allocated     5.19E+01 Mbytes, locked:    0 /   1

     iteration # 12     ecut=    40.00 Ry     beta= 0.70
     Davidson diagonalization with overlap

---- Real-time Memory Report at c_bands before calling an iterative solver
          3596 MiB given to the printing process from OS
          -757 MiB allocation reported by mallinfo(arena+hblkhd)
        254688 MiB available memory on the node where the printing process lives
     GPU memory used/free/total (MiB): 5726 / 10434 / 16160
------------------
     ethr =  1.02E-11,  avg # of iterations =  2.0

     total cpu time spent up to now is      108.4 secs

     total energy              =   -7560.68146843 Ry
     estimated scf accuracy    <       0.00000004 Ry
[tb_dev] Currently allocated     1.78E+03 Mbytes, locked:    0 /  15
[tb_pin] Currently allocated     5.19E+01 Mbytes, locked:    0 /   1

     iteration # 13     ecut=    40.00 Ry     beta= 0.70
     Davidson diagonalization with overlap

---- Real-time Memory Report at c_bands before calling an iterative solver
          3596 MiB given to the printing process from OS
          -757 MiB allocation reported by mallinfo(arena+hblkhd)
        254789 MiB available memory on the node where the printing process lives
     GPU memory used/free/total (MiB): 5726 / 10434 / 16160
------------------
     ethr =  2.45E-12,  avg # of iterations =  1.5

     total cpu time spent up to now is      113.9 secs

     total energy              =   -7560.68146843 Ry
     estimated scf accuracy    <       0.00000003 Ry
[tb_dev] Currently allocated     1.78E+03 Mbytes, locked:    0 /  15
[tb_pin] Currently allocated     5.19E+01 Mbytes, locked:    0 /   1

     iteration # 14     ecut=    40.00 Ry     beta= 0.70
     Davidson diagonalization with overlap

---- Real-time Memory Report at c_bands before calling an iterative solver
          3598 MiB given to the printing process from OS
          -757 MiB allocation reported by mallinfo(arena+hblkhd)
        254826 MiB available memory on the node where the printing process lives
     GPU memory used/free/total (MiB): 5726 / 10434 / 16160
------------------
     ethr =  2.25E-12,  avg # of iterations =  2.0

     total cpu time spent up to now is      119.4 secs

     total energy              =   -7560.68146842 Ry
     estimated scf accuracy    <       0.00000001 Ry
[tb_dev] Currently allocated     1.78E+03 Mbytes, locked:    0 /  15
[tb_pin] Currently allocated     5.19E+01 Mbytes, locked:    0 /   1

     iteration # 15     ecut=    40.00 Ry     beta= 0.70
     Davidson diagonalization with overlap

---- Real-time Memory Report at c_bands before calling an iterative solver
          3598 MiB given to the printing process from OS
          -757 MiB allocation reported by mallinfo(arena+hblkhd)
        254890 MiB available memory on the node where the printing process lives
     GPU memory used/free/total (MiB): 5726 / 10434 / 16160
------------------
     ethr =  6.81E-13,  avg # of iterations =  2.0

     total cpu time spent up to now is      125.4 secs

     total energy              =   -7560.68146842 Ry
     estimated scf accuracy    <          1.8E-09 Ry
[tb_dev] Currently allocated     1.78E+03 Mbytes, locked:    0 /  15
[tb_pin] Currently allocated     5.19E+01 Mbytes, locked:    0 /   1

     iteration # 16     ecut=    40.00 Ry     beta= 0.70
     Davidson diagonalization with overlap

---- Real-time Memory Report at c_bands before calling an iterative solver
          3598 MiB given to the printing process from OS
          -757 MiB allocation reported by mallinfo(arena+hblkhd)
        254664 MiB available memory on the node where the printing process lives
     GPU memory used/free/total (MiB): 5726 / 10434 / 16160
------------------
     ethr =  1.17E-13,  avg # of iterations =  4.0

     total cpu time spent up to now is      132.3 secs

     End of self-consistent calculation

          k = 0.2500 0.1443 0.1136 (104283 PWs)   bands (ev):

   -16.8582 -16.7979 -16.7683 -16.7126 -16.6808 -16.6046 -16.6041 -16.6034
   -16.5603 -16.5583 -16.5372 -16.5115 -16.5027 -16.4790 -16.4758 -16.4559
   -16.4310 -16.4191 -16.4190 -16.3959 -16.3959 -16.3858 -16.3829 -16.3712
   -16.3674 -16.3674 -16.3393 -16.3393 -16.3152 -16.3077 -16.2958 -16.2926
   -16.2762 -16.2342 -16.1013 -16.0960 -16.0563 -16.0493 -16.0253 -16.0206
   -15.9938 -15.9752 -15.9647 -15.9586 -15.9233 -15.9232 -15.9208 -15.9207
   -15.9178 -15.9178 -15.9096 -15.9096 -15.8964 -15.8446 -15.8333 -15.8211
   -15.8054 -15.7993 -15.7894 -15.7863 -15.7290 -15.7222 -15.5746 -15.5612
   -15.5185 -15.4722 -15.4215 -15.4215 -15.4052 -15.4052 -15.3914 -15.3501
   -15.3501 -15.3470 -15.3313 -15.3312 -15.3300 -15.3256 -15.3198 -15.3103
   -15.2995 -15.2861 -15.2824 -15.2764 -15.2638 -15.2623 -15.2248 -15.2070
   -15.1852 -15.1782 -15.1394 -15.0468 -15.0137 -14.9448 -14.8956 -14.8130
   -14.8077 -14.8076 -14.8013 -14.7977 -14.7936 -14.7912 -14.7911 -14.7894
   -14.7853 -14.7829 -14.7829 -14.7823 -14.7798 -14.7798 -14.7796 -14.7792
   -14.7784 -14.7764 -14.7741 -14.7723 -14.7719 -14.7706 -14.7702 -14.7664
   -14.7652 -14.7599 -14.7563 -14.7560 -14.7528 -14.7527 -14.7501 -14.7477
   -14.7431 -14.7431 -14.7425 -14.7423 -14.7423 -14.7399 -14.7399 -14.7389
   -14.7387 -14.7378 -14.7365 -14.7365 -14.7334 -14.7325 -14.7319 -14.7312
   -14.7312 -14.7301 -14.7293 -14.7285 -14.7285 -14.7232 -14.7230 -14.7207
   -14.7198 -14.7190 -14.7172 -14.7168 -14.7131 -14.7126 -14.7125 -14.7122
   -14.7103 -14.7098 -14.7082 -14.7081 -14.7074 -14.7068 -14.7060 -14.7059
   -14.7039 -14.7038 -14.7038 -14.7037 -14.7037 -14.7002 -14.6997 -14.6981
   -14.6975 -14.6973 -14.6969 -14.6961 -14.6938 -14.6937 -14.6931 -14.6906
   -14.6854 -14.6822 -14.6808 -14.6789 -14.6782 -14.6703 -14.6656 -14.6605
    -6.7213  -6.5827  -6.5063  -6.3939  -6.3172  -6.1803  -6.1388  -6.1380
    -6.0879  -6.0862  -6.0087  -5.9959  -5.9937  -5.9819  -5.9520  -5.9503
    -5.9410  -5.9212  -5.9211  -5.9074  -5.9039  -5.9031  -5.8974  -5.8780
    -5.8778  -5.8514  -5.8151  -5.8149  -5.7653  -5.7652  -5.6748  -5.4869
    -5.4822  -5.3781  -5.1166  -5.1163  -5.0527  -5.0042  -4.9946  -4.9791
    -4.9322  -4.9311  -4.9276  -4.8456  -4.8454  -4.8209  -4.8209  -4.7918
    -4.7916  -4.7820  -4.7698  -4.7697  -4.7398  -4.6807  -4.6775  -4.6049
    -4.5973  -4.5772  -4.5172  -4.5127  -4.4695  -4.4666  -4.2090  -4.0745
    -4.0481  -4.0400  -4.0171  -3.9890  -3.9536  -3.9534  -3.9087  -3.9052
    -3.8788  -3.8649  -3.8648  -3.8050  -3.7465  -3.7443  -3.7413  -3.7252
    -3.7250  -3.6974  -3.6000  -3.6000  -3.5677  -3.5465  -3.5436  -3.5421
    -3.4302  -3.3697  -3.3665  -3.3502  -3.3460  -3.2183  -3.1360  -3.0656
    -3.0425  -3.0250  -3.0173  -2.9736  -2.9726  -2.9705  -2.9689  -2.9659
    -2.9621  -2.9600  -2.9493  -2.9463  -2.9462  -2.9433  -2.9432  -2.9345
    -2.9283  -2.9280  -2.9270  -2.9269  -2.9203  -2.9185  -2.9163  -2.9118
    -2.9043  -2.9037  -2.9036  -2.9033  -2.8962  -2.8903  -2.8827  -2.8741
    -2.8582  -2.8406  -2.8336  -2.8309  -2.8308  -2.8247  -2.8246  -2.8147
    -2.8121  -2.8031  -2.7969  -2.7890  -2.7592  -2.7362  -2.7126  -2.7120
    -2.7082  -2.7079  -2.7078  -2.6951  -2.6896  -2.6819  -2.6658  -2.6341
    -2.6301  -2.6172  -2.5802  -2.5801  -2.5796  -2.5794  -2.5759  -2.5759
    -2.5736  -2.5533  -2.5333  -2.5273  -2.5186  -2.4892  -2.4871  -2.4870
    -2.4735  -2.4232  -2.4203  -2.4161  -2.4063  -2.4033  -2.4032  -2.4009
    -2.3933  -2.3904  -2.3876  -2.3530  -2.3451  -2.3351  -2.3185  -2.3073
    -2.2744  -2.2742  -2.2696  -2.2566  -2.2110  -2.1644  -2.1642  -2.0922
    -0.8447  -0.8129  -0.8128  -0.8092  -0.7959  -0.7899  -0.7803  -0.7633
    -0.7632  -0.7623  -0.7456  -0.7450  -0.7450  -0.7448  -0.7447  -0.7354
    -0.7335  -0.7279  -0.7226  -0.7131  -0.7105  -0.6972  -0.6970  -0.6913
    -0.6845  -0.6767  -0.6583  -0.6582  -0.6357  -0.6355  -0.6202  -0.6150
    -0.6149  -0.6146  -0.6108  -0.6030  -0.5905  -0.5756  -0.5285  -0.5076
    -0.4913  -0.4862  -0.4832  -0.4831  -0.4700  -0.4696  -0.4659  -0.4552
    -0.4473  -0.4472  -0.4366  -0.4339  -0.4339  -0.4323  -0.4202  -0.4045
    -0.3924  -0.3586  -0.3368  -0.3231  -0.3222  -0.3155  -0.3108  -0.3107
    -0.3105  -0.2866  -0.2721  -0.2448  -0.2429  -0.2414  -0.2268  -0.2126
    -0.2069  -0.2067  -0.1874  -0.1846  -0.1723  -0.1719  -0.1701  -0.1670
    -0.1610  -0.1591  -0.1447  -0.1428  -0.1408  -0.1174  -0.1174  -0.1107
    -0.1036  -0.0899  -0.0458  -0.0456  -0.0363  -0.0359   0.0183   0.0280
     0.0537   0.0622   0.0994   0.1110   0.1127   0.1207   0.1327   0.1415
     0.1415   0.1530   0.1544   0.1555   0.1610   0.1618   0.1696   0.1761
     0.1830   0.1987   0.2006   0.2007   0.2062   0.2070   0.2073   0.2078
     0.2146   0.2796   0.2798   0.3117   0.3124   0.3250   0.3346   0.3599
     0.3622   0.3645   0.3725   0.3902   0.4054   0.4055   0.4084   0.4183
     0.4305   0.4318   0.4348   0.4370   0.4371   0.4410   0.4425   0.4591
     0.4594   0.4596   0.4607   0.4607   0.4620   0.4622   0.4682   0.4754
     0.4807   0.4844   0.4892   0.4971   0.4981   0.5197   0.5770   0.5825
     0.5974   0.6084   0.6456   0.6695   0.6696   0.6808   0.6808   0.7647
     0.7648   0.7649   0.7712   0.7725   0.7754   0.7757   0.7829   0.7890
     0.7995   0.7996   0.8015   0.8046   0.8074   0.8106   0.8137   0.8454
     0.8509   0.8566   0.8594   0.8649   0.8650   0.8755   0.8969   0.8972
     0.9054   0.9150   0.9192   0.9193   0.9276   0.9329   0.9379   0.9384
     0.9562   0.9592   0.9760   0.9764   0.9862   0.9894   0.9970   0.9977
     1.0016   1.0049   1.0057   1.0109   1.0109   1.0167   1.0169   1.0215
     1.0439   1.0785   1.0840   1.1031   1.1249   1.1251   1.1254   1.1300
     1.1386   1.1481   1.1752   1.1894   1.2064   1.2204   1.2303   1.2303
     1.2330   1.2332   1.2384   1.2388   1.2435   1.2439   1.2517   1.2657
     1.2728   1.2770   1.2834   1.2837   1.2878   1.2923   1.2961   1.2968
     1.2972   1.3011   1.3015   1.3282   1.3283   1.3289   1.3298   1.3458
     1.3487   1.3663   1.3832   1.4077   1.4160   1.4162   1.4191   1.4293
     1.4397   1.4442   1.4492   1.4512   1.4605   1.4633   1.4650   1.4651
     1.4778   1.4843   1.4872   1.5047   1.5052   1.5071   1.5075   1.5077
     1.5153   1.5165   1.5165   1.5319   1.5400   1.5417   1.5453   1.5492
     1.6022   1.6115   1.6223   1.6372   1.6400   1.6448   1.6481   1.6490
     1.6589   1.6745   1.6845   1.7133   1.7135   1.7201   1.7228   1.7407
     1.7502   1.7609   1.7609   1.7637   1.7736   1.7736   1.7749   1.7948
     1.7951   1.8136   1.8173   1.8225   1.8290   1.8290   1.8800   1.8837
     1.8838   1.8841   1.9087   1.9247   1.9376   1.9522   1.9951   2.0053
     2.0131   2.0175   2.0235   2.0266   2.0396   2.0646   2.0805   2.0811
     2.0975   2.1046   2.1152   2.1153   2.1224   2.1260   2.1402   2.1403
     2.1404   2.1433   2.1451   2.1558   2.1592   2.1795   2.1890   2.1890
     2.1941   2.1994   2.2126   2.2216   2.2411   2.2518   2.2550   2.2618
     2.2644   2.2938   2.2939   2.2982   2.3052   2.3146   2.3282   2.3361
     2.3362   2.3417   2.3447   2.3512   2.3536   2.3590   2.3640   2.3650
     2.3869   2.3874   2.3974   2.4019   2.4119   2.4200   2.4201   2.4388
     8.5847   8.8753   9.0254   9.2733   9.3849   9.7247   9.7472   9.7521
     9.9335   9.9508  10.0401  10.0503  10.1962  10.2764  10.3026  10.3171
    10.5117  10.5117  10.5785  10.6606  10.6606  10.7066  10.7185  10.7802
    10.8530  10.8822  10.8822  10.9212  10.9829  11.0657  11.1861  11.1861
    11.1908  11.2002  11.2831  11.3296  11.3588  11.3887  11.3998  11.4226
    11.4399  11.4435  11.4495  11.4536  11.4538  11.4684  11.4738  11.4835
    11.5057  11.5285  11.5320  11.5321  11.5373  11.5395  11.5473  11.5474
    11.5543  11.5745  11.5779  11.5780  11.5875  11.5876  11.6045  11.6050
    11.6115  11.6160  11.6380  11.6427  11.6615  11.6675  11.6798  11.7239
    11.7511  11.7674  11.7675  11.7697  11.7699  11.7752  11.7796  11.7951
    11.7988  11.8030  11.8036  11.8270  11.8316  11.8552  11.8571  11.8668
    11.8673  11.9157  11.9200  11.9200  11.9230  11.9461  11.9778  11.9850
    11.9862  11.9862  11.9910  11.9910  12.0074  12.0677  12.0979  12.0980
    12.1091  12.1164  12.1181  12.1232  12.1513  12.1879  12.1933  12.1981
    12.2153  12.2214  12.2330  12.2331  12.2372  12.2483  12.2524  12.2594
    12.2804  12.3010  12.3012  12.3020  12.3249  12.3262  12.3263  12.3512
    12.3569  12.3691  12.4034  12.4072  12.4136  12.4455  12.4769  12.4935
    12.4948  12.5031  12.5137  12.5147  12.5483  12.5538  12.5678  12.5894
    12.5895  12.6006  12.6138  12.6140  12.6322  12.6367  12.6459  12.6589
    12.6661  12.6846

     occupation numbers 
     1.0000   1.0000   1.0000   1.0000   1.0000   1.0000   1.0000   1.0000
     1.0000   1.0000   1.0000   1.0000   1.0000   1.0000   1.0000   1.0000
     1.0000   1.0000   1.0000   1.0000   1.0000   1.0000   1.0000   1.0000
     1.0000   1.0000   1.0000   1.0000   1.0000   1.0000   1.0000   1.0000
     1.0000   1.0000   1.0000   1.0000   1.0000   1.0000   1.0000   1.0000
     1.0000   1.0000   1.0000   1.0000   1.0000   1.0000   1.0000   1.0000
     1.0000   1.0000   1.0000   1.0000   1.0000   1.0000   1.0000   1.0000
     1.0000   1.0000   1.0000   1.0000   1.0000   1.0000   1.0000   1.0000
     1.0000   1.0000   1.0000   1.0000   1.0000   1.0000   1.0000   1.0000
     1.0000   1.0000   1.0000   1.0000   1.0000   1.0000   1.0000   1.0000
     1.0000   1.0000   1.0000   1.0000   1.0000   1.0000   1.0000   1.0000
     1.0000   1.0000   1.0000   1.0000   1.0000   1.0000   1.0000   1.0000
     1.0000   1.0000   1.0000   1.0000   1.0000   1.0000   1.0000   1.0000
     1.0000   1.0000   1.0000   1.0000   1.0000   1.0000   1.0000   1.0000
     1.0000   1.0000   1.0000   1.0000   1.0000   1.0000   1.0000   1.0000
     1.0000   1.0000   1.0000   1.0000   1.0000   1.0000   1.0000   1.0000
     1.0000   1.0000   1.0000   1.0000   1.0000   1.0000   1.0000   1.0000
     1.0000   1.0000   1.0000   1.0000   1.0000   1.0000   1.0000   1.0000
     1.0000   1.0000   1.0000   1.0000   1.0000   1.0000   1.0000   1.0000
     1.0000   1.0000   1.0000   1.0000   1.0000   1.0000   1.0000   1.0000
     1.0000   1.0000   1.0000   1.0000   1.0000   1.0000   1.0000   1.0000
     1.0000   1.0000   1.0000   1.0000   1.0000   1.0000   1.0000   1.0000
     1.0000   1.0000   1.0000   1.0000   1.0000   1.0000   1.0000   1.0000
     1.0000   1.0000   1.0000   1.0000   1.0000   1.0000   1.0000   1.0000
     1.0000   1.0000   1.0000   1.0000   1.0000   1.0000   1.0000   1.0000
     1.0000   1.0000   1.0000   1.0000   1.0000   1.0000   1.0000   1.0000
     1.0000   1.0000   1.0000   1.0000   1.0000   1.0000   1.0000   1.0000
     1.0000   1.0000   1.0000   1.0000   1.0000   1.0000   1.0000   1.0000
     1.0000   1.0000   1.0000   1.0000   1.0000   1.0000   1.0000   1.0000
     1.0000   1.0000   1.0000   1.0000   1.0000   1.0000   1.0000   1.0000
     1.0000   1.0000   1.0000   1.0000   1.0000   1.0000   1.0000   1.0000
     1.0000   1.0000   1.0000   1.0000   1.0000   1.0000   1.0000   1.0000
     1.0000   1.0000   1.0000   1.0000   1.0000   1.0000   1.0000   1.0000
     1.0000   1.0000   1.0000   1.0000   1.0000   1.0000   1.0000   1.0000
     1.0000   1.0000   1.0000   1.0000   1.0000   1.0000   1.0000   1.0000
     1.0000   1.0000   1.0000   1.0000   1.0000   1.0000   1.0000   1.0000
     1.0000   1.0000   1.0000   1.0000   1.0000   1.0000   1.0000   1.0000
     1.0000   1.0000   1.0000   1.0000   1.0000   1.0000   1.0000   1.0000
     1.0000   1.0000   1.0000   1.0000   1.0000   1.0000   1.0000   1.0000
     1.0000   1.0000   1.0000   1.0000   1.0000   1.0000   1.0000   1.0000
     1.0000   1.0000   1.0000   1.0000   1.0000   1.0000   1.0000   1.0000
     1.0000   1.0000   1.0000   1.0000   1.0000   1.0000   1.0000   1.0000
     1.0000   1.0000   1.0000   1.0000   1.0000   1.0000   1.0000   1.0000
     1.0000   1.0000   1.0000   1.0000   1.0000   1.0000   1.0000   1.0000
     1.0000   1.0000   1.0000   1.0000   1.0000   1.0000   1.0000   1.0000
     1.0000   1.0000   1.0000   1.0000   1.0000   1.0000   1.0000   1.0000
     1.0000   1.0000   1.0000   1.0000   1.0000   1.0000   1.0000   1.0000
     1.0000   1.0000   1.0000   1.0000   1.0000   1.0000   1.0000   1.0000
     1.0000   1.0000   1.0000   1.0000   1.0000   1.0000   1.0000   1.0000
     1.0000   1.0000   1.0000   1.0000   1.0000   1.0000   1.0000   1.0000
     1.0000   1.0000   1.0000   1.0000   1.0000   1.0000   1.0000   1.0000
     1.0000   1.0000   1.0000   1.0000   1.0000   1.0000   1.0000   1.0000
     1.0000   1.0000   1.0000   1.0000   1.0000   1.0000   1.0000   1.0000
     1.0000   1.0000   1.0000   1.0000   1.0000   1.0000   1.0000   1.0000
     1.0000   1.0000   1.0000   1.0000   1.0000   1.0000   1.0000   1.0000
     1.0000   1.0000   1.0000   1.0000   1.0000   1.0000   1.0000   1.0000
     1.0000   1.0000   1.0000   1.0000   1.0000   1.0000   1.0000   1.0000
     1.0000   1.0000   1.0000   1.0000   1.0000   1.0000   1.0000   1.0000
     1.0000   1.0000   1.0000   1.0000   1.0000   1.0000   1.0000   1.0000
     1.0000   1.0000   1.0000   1.0000   1.0000   1.0000   1.0000   1.0000
     1.0000   1.0000   1.0000   1.0000   1.0000   1.0000   1.0000   1.0000
     1.0000   1.0000   1.0000   1.0000   1.0000   1.0000   1.0000   1.0000
     1.0000   1.0000   1.0000   1.0000   1.0000   1.0000   1.0000   1.0000
     1.0000   1.0000   1.0000   1.0000   1.0000   1.0000   1.0000   1.0000
     1.0000   1.0000   1.0000   1.0000   1.0000   1.0000   1.0000   1.0000
     1.0000   1.0000   1.0000   1.0000   1.0000   1.0000   1.0000   1.0000
     1.0000   1.0000   1.0000   1.0000   1.0000   1.0000   1.0000   1.0000
     1.0000   1.0000   1.0000   1.0000   1.0000   1.0000   1.0000   1.0000
     1.0000   1.0000   1.0000   1.0000   1.0000   1.0000   1.0000   1.0000
     1.0000   1.0000   1.0000   1.0000   1.0000   1.0000   1.0000   1.0000
     1.0000   1.0000   1.0000   1.0000   1.0000   1.0000   1.0000   1.0000
     1.0000   1.0000   1.0000   1.0000   1.0000   1.0000   1.0000   1.0000
     1.0000   1.0000   1.0000   1.0000   1.0000   1.0000   1.0000   1.0000
[...]
O             0.5789030573        1.3607705636        0.1196770827
Si            0.3827238845        0.2031375936        0.1833198218
Si            0.3827238872        1.0691630130        0.1833198121
Si            0.8827238849        0.2031375927        0.1833198216
Si            0.8827238857        1.0691630134        0.1833198119
Si            0.1327238841        0.6361502927        0.1833198234
Si            0.1327238865        1.5021757148        0.1833198107
Si            0.6327238846        0.6361502937        0.1833198233
Si            0.6327238874        1.5021757144        0.1833198113
O             0.0321092400        0.1790552624        0.2469621843
O             0.0321092382        1.0450806596        0.2469621800
O             0.5321092384        0.1790552641        0.2469621843
O             0.5321092390        1.0450806580        0.2469621783
O             0.2821092401        0.6120679621        0.2469621835
O             0.2821092393        1.4780933603        0.2469621797
O             0.7821092382        0.6120679648        0.2469621844
O             0.7821092375        1.4780933603        0.2469621800
O             0.0321092376        0.6869701394        0.3029971193
O             0.0321092386        1.5529955361        0.3029971146
O             0.5321092390        0.6869701416        0.3029971220
O             0.5321092395        1.5529955386        0.3029971174
O             0.2821092366        0.2539574384        0.3029971194
O             0.2821092399        1.1199828370        0.3029971170
O             0.7821092372        0.2539574392        0.3029971193
O             0.7821092389        1.1199828372        0.3029971165
Si            0.3827238855        0.6628877847        0.3666394876
Si            0.3827238848        1.5289132067        0.3666394779
Si            0.8827238854        0.6628877868        0.3666394875
Si            0.8827238842        1.5289132067        0.3666394782
Si            0.1327238862        0.2298750852        0.3666394886
Si            0.1327238843        1.0959005068        0.3666394775
Si            0.6327238863        0.2298750861        0.3666394879
Si            0.6327238853        1.0959005064        0.3666394765
O             0.3289030561        0.8042929346        0.4302822186
O             0.3289030564        1.6703183347        0.4302822169
O             0.8289030561        0.8042929372        0.4302822181
O             0.8289030574        1.6703183354        0.4302822156
O             0.0789030573        0.3712802344        0.4302822179
O             0.0789030559        1.2373056357        0.4302822161
O             0.5789030580        0.3712802404        0.4302822166
O             0.5789030553        1.2373056356        0.4302822160
O             0.1389787791        0.1173298801        0.4863099167
O             0.1389787920        0.9833553412        0.4863099422
O             0.6389787813        0.1173298800        0.4863099148
O             0.6389787925        0.9833553413        0.4863099403
O             0.3889787757        0.5503425806        0.4863099180
O             0.3889787926        1.4163680422        0.4863099409
O             0.8889787791        0.5503425808        0.4863099169
O             0.8889787943        1.4163680418        0.4863099399
Si            0.2345700757        0.0000000003        0.5499593000
Si            0.2345700553        0.8660254005        0.5499593009
Si            0.7345700779       -0.0000000006        0.5499592996
Si            0.7345700553        0.8660253994        0.5499592991
Si            0.4845700664        0.4330126820        0.5499593066
Si            0.4845700661        1.2990381184        0.5499592926
Si            0.9845700669        0.4330126822        0.5499593073
Si            0.9845700661        1.2990381186        0.5499592931
O             0.1389787941        0.7486955606        0.6136086586
O             0.1389787803        1.6147209202        0.6136086838
O             0.6389787927        0.7486955596        0.6136086572
O             0.6389787814        1.6147209198        0.6136086840
O             0.3889787957        0.3156828589        0.6136086598
O             0.3889787782        1.1817082196        0.6136086817
O             0.8889787942        0.3156828582        0.6136086602
O             0.8889787792        1.1817082196        0.6136086827
O             0.3289030564        0.0617324640        0.6696363817
O             0.3289030554        0.9277578651        0.6696363812
O             0.8289030564        0.0617324643        0.6696363824
O             0.8289030551        0.9277578646        0.6696363812
O             0.0789030560        0.4947451641        0.6696363838
O             0.0789030560        1.3607705657        0.6696363808
O             0.5789030559        0.4947451650        0.6696363832
O             0.5789030563        1.3607705643        0.6696363806
Si            0.3827238845        0.2031375932        0.7332791219
Si            0.3827238854        1.0691630145        0.7332791121
Si            0.8827238846        0.2031375933        0.7332791216
Si            0.8827238864        1.0691630147        0.7332791121
Si            0.1327238852        0.6361502927        0.7332791222
Si            0.1327238856        1.5021757145        0.7332791118
Si            0.6327238838        0.6361502936        0.7332791221
Si            0.6327238867        1.5021757139        0.7332791113
O             0.0321092385        0.1790552637        0.7969214851
O             0.0321092369        1.0450806617        0.7969214806
O             0.5321092397        0.1790552630        0.7969214843
O             0.5321092361        1.0450806617        0.7969214806
O             0.2821092383        0.6120679641        0.7969214842
O             0.2821092353        1.4780933625        0.7969214816
O             0.7821092381        0.6120679635        0.7969214835
O             0.7821092386        1.4780933618        0.7969214814
O             0.0321092365        0.6869701384        0.8529564186
O             0.0321092387        1.5529955369        0.8529564161
O             0.5321092375        0.6869701391        0.8529564190
O             0.5321092392        1.5529955361        0.8529564149
O             0.2821092369        0.2539574383        0.8529564191
O             0.2821092386        1.1199828369        0.8529564158
O             0.7821092372        0.2539574395        0.8529564197
O             0.7821092404        1.1199828375        0.8529564160
Si            0.3827238861        0.6628877866        0.9165987873
Si            0.3827238842        1.5289132073        0.9165987780
Si            0.8827238856        0.6628877866        0.9165987878
Si            0.8827238854        1.5289132071        0.9165987773
Si            0.1327238863        0.2298750860        0.9165987893
Si            0.1327238849        1.0959005073        0.9165987767
Si            0.6327238864        0.2298750856        0.9165987874
Si            0.6327238852        1.0959005079        0.9165987764
O             0.3289030552        0.8042929357        0.9802415194
O             0.3289030559        1.6703183355        0.9802415178
O             0.8289030576        0.8042929392        0.9802415169
O             0.8289030576        1.6703183373        0.9802415154
O             0.0789030578        0.3712802365        0.9802415180
O             0.0789030556        1.2373056355        0.9802415162
O             0.5789030600        0.3712802391        0.9802415150
O             0.5789030565        1.2373056367        0.9802415155
O             0.1389787808        0.1173298801        1.0362692163
O             0.1389787940        0.9833553406        1.0362692410
O             0.6389787809        0.1173298801        1.0362692159
O             0.6389787943        0.9833553396        1.0362692419
O             0.3889787805        0.5503425804        1.0362692160
O             0.3889787951        1.4163680418        1.0362692402
O             0.8889787788        0.5503425806        1.0362692172
O             0.8889787944        1.4163680425        1.0362692401
Si            0.2345700766        0.0000000000        1.0999186000
Si            0.2345700558        0.8660254000        1.0999186000
Si            0.7345700791        0.0000000000        1.0999186000
Si            0.7345700575        0.8660254000        1.0999186000
Si            0.4845700668        0.4330126814        1.0999186084
Si            0.4845700668        1.2990381186        1.0999185916
Si            0.9845700679        0.4330126811        1.0999186072
Si            0.9845700679        1.2990381189        1.0999185928
O             0.1389787940        0.7486955594        1.1635679590
O             0.1389787808        1.6147209199        1.1635679837
O             0.6389787943        0.7486955604        1.1635679581
O             0.6389787809        1.6147209199        1.1635679841
O             0.3889787951        0.3156828582        1.1635679598
O             0.3889787805        1.1817082196        1.1635679840
O             0.8889787944        0.3156828575        1.1635679599
O             0.8889787788        1.1817082194        1.1635679828
O             0.3289030559        0.0617324645        1.2195956822
O             0.3289030552        0.9277578643        1.2195956806
O             0.8289030576        0.0617324627        1.2195956846
O             0.8289030576        0.9277578608        1.2195956831
O             0.0789030556        0.4947451645        1.2195956838
O             0.0789030578        1.3607705635        1.2195956820
O             0.5789030565        0.4947451633        1.2195956845
O             0.5789030600        1.3607705609        1.2195956850
Si            0.3827238842        0.2031375927        1.2832384220
Si            0.3827238861        1.0691630134        1.2832384127
Si            0.8827238854        0.2031375929        1.2832384227
Si            0.8827238856        1.0691630134        1.2832384122
Si            0.1327238849        0.6361502927        1.2832384233
Si            0.1327238863        1.5021757140        1.2832384107
Si            0.6327238852        0.6361502921        1.2832384236
Si            0.6327238864        1.5021757144        1.2832384126
O             0.0321092387        0.1790552631        1.3468807839
O             0.0321092365        1.0450806616        1.3468807814
O             0.5321092392        0.1790552639        1.3468807851
O             0.5321092375        1.0450806609        1.3468807810
O             0.2821092386        0.6120679631        1.3468807842
O             0.2821092369        1.4780933617        1.3468807809
O             0.7821092404        0.6120679625        1.3468807840
O             0.7821092372        1.4780933605        1.3468807803
O             0.0321092369        0.6869701383        1.4029157194
O             0.0321092385        1.5529955363        1.4029157149
O             0.5321092361        0.6869701383        1.4029157194
O             0.5321092397        1.5529955370        1.4029157157
O             0.2821092353        0.2539574375        1.4029157184
O             0.2821092383        1.1199828359        1.4029157158
O             0.7821092386        0.2539574382        1.4029157186
O             0.7821092381        1.1199828365        1.4029157165
Si            0.3827238854        0.6628877855        1.4665580879
Si            0.3827238845        1.5289132068        1.4665580781
Si            0.8827238864        0.6628877853        1.4665580879
Si            0.8827238846        1.5289132067        1.4665580784
Si            0.1327238856        0.2298750855        1.4665580882
Si            0.1327238852        1.0959005073        1.4665580778
Si            0.6327238867        0.2298750861        1.4665580887
Si            0.6327238838        1.0959005064        1.4665580779
O             0.3289030554        0.8042929349        1.5302008188
O             0.3289030564        1.6703183360        1.5302008183
O             0.8289030551        0.8042929354        1.5302008188
O             0.8289030564        1.6703183357        1.5302008176
O             0.0789030560        0.3712802343        1.5302008192
O             0.0789030560        1.2373056359        1.5302008162
O             0.5789030563        0.3712802357        1.5302008194
O             0.5789030559        1.2373056350        1.5302008168
O             0.1389787803        0.1173298798        1.5862285162
O             0.1389787941        0.9833553394        1.5862285414
O             0.6389787814        0.1173298802        1.5862285160
O             0.6389787927        0.9833553404        1.5862285428
O             0.3889787782        0.5503425804        1.5862285183
O             0.3889787957        1.4163680411        1.5862285402
O             0.8889787792        0.5503425804        1.5862285173
O             0.8889787942        1.4163680418        1.5862285398
Si            0.2345700757       -0.0000000003        1.6498779000
Si            0.2345700553        0.8660253995        1.6498778991
Si            0.7345700779        0.0000000006        1.6498779004
Si            0.7345700553        0.8660254006        1.6498779009
Si            0.4845700661        0.4330126816        1.6498779074
Si            0.4845700664        1.2990381180        1.6498778934
Si            0.9845700661        0.4330126814        1.6498779069
Si            0.9845700669        1.2990381178        1.6498778927
O             0.1389787920        0.7486955588        1.7135272578
O             0.1389787791        1.6147209199        1.7135272833
O             0.6389787925        0.7486955587        1.7135272597
O             0.6389787813        1.6147209200        1.7135272852
O             0.3889787926        0.3156828578        1.7135272591
O             0.3889787757        1.1817082194        1.7135272820
O             0.8889787943        0.3156828582        1.7135272601
O             0.8889787791        1.1817082192        1.7135272831
O             0.3289030564        0.0617324653        1.7695549831
O             0.3289030561        0.9277578654        1.7695549814
O             0.8289030574        0.0617324646        1.7695549844
O             0.8289030561        0.9277578628        1.7695549819
O             0.0789030559        0.4947451643        1.7695549839
O             0.0789030573        1.3607705656        1.7695549821
O             0.5789030553        0.4947451644        1.7695549840
O             0.5789030580        1.3607705596        1.7695549834
Si            0.3827238848        0.2031375933        1.8331977221
Si            0.3827238855        1.0691630153        1.8331977124
Si            0.8827238842        0.2031375933        1.8331977218
Si            0.8827238854        1.0691630132        1.8331977125
Si            0.1327238843        0.6361502932        1.8331977225
Si            0.1327238862        1.5021757148        1.8331977114
Si            0.6327238853        0.6361502936        1.8331977235
Si            0.6327238863        1.5021757139        1.8331977121
O             0.0321092386        0.1790552639        1.8968400854
O             0.0321092376        1.0450806606        1.8968400807
O             0.5321092395        0.1790552614        1.8968400826
O             0.5321092390        1.0450806584        1.8968400780
O             0.2821092399        0.6120679630        1.8968400830
O             0.2821092366        1.4780933616        1.8968400806
O             0.7821092389        0.6120679628        1.8968400835
O             0.7821092372        1.4780933608        1.8968400807
O             0.0321092382        0.6869701404        1.9528750200
O             0.0321092400        1.5529955376        1.9528750157
O             0.5321092390        0.6869701420        1.9528750217
O             0.5321092384        1.5529955359        1.9528750157
O             0.2821092393        0.2539574397        1.9528750203
O             0.2821092401        1.1199828379        1.9528750165
O             0.7821092375        0.2539574397        1.9528750200
O             0.7821092382        1.1199828352        1.9528750156
Si            0.3827238872        0.6628877870        2.0165173879
Si            0.3827238845        1.5289132064        2.0165173782
Si            0.8827238857        0.6628877866        2.0165173881
Si            0.8827238849        1.5289132073        2.0165173784
Si            0.1327238865        0.2298750852        2.0165173893
Si            0.1327238841        1.0959005073        2.0165173766
Si            0.6327238874        0.2298750856        2.0165173887
Si            0.6327238846        1.0959005063        2.0165173767
O             0.3289030563        0.8042929356        2.0801601176
O             0.3289030556        1.6703183360        2.0801601177
O             0.8289030560        0.8042929363        2.0801601186
O             0.8289030563        1.6703183367        2.0801601176
O             0.0789030586        0.3712802356        2.0801601178
O             0.0789030557        1.2373056353        2.0801601161
O             0.5789030573        0.3712802364        2.0801601173
O             0.5789030553        1.2373056350        2.0801601168
O             0.1389787789        0.1173298792        2.1361878178
O             0.1389787935        0.9833553398        2.1361878412
O             0.6389787803        0.1173298809        2.1361878155
O             0.6389787918        0.9833553406        2.1361878424
O             0.3889787782        0.5503425803        2.1361878174
O             0.3889787928        1.4163680415        2.1361878415
O             0.8889787802        0.5503425814        2.1361878156
O             0.8889787946        1.4163680415        2.1361878404



     Writing config-only to output data dir ./SiO2_OR_288_us.save/
     NEW-OLD atomic charge density approx. for the potential

     Check: negative core charge=   -0.000035

     total cpu time spent up to now is      144.0 secs

     Self-consistent Calculation
[tb_dev] Currently allocated     0.00E+00 Mbytes, locked:    0 /   0
[tb_pin] Currently allocated     5.19E+01 Mbytes, locked:    0 /   1

     iteration #  1     ecut=    40.00 Ry     beta= 0.70
     Davidson diagonalization with overlap

---- Real-time Memory Report at c_bands before calling an iterative solver
          4338 MiB given to the printing process from OS
          -829 MiB allocation reported by mallinfo(arena+hblkhd)
        261955 MiB available memory on the node where the printing process lives
     GPU memory used/free/total (MiB): 3910 / 12250 / 16160
------------------
     ethr =  1.00E-06,  avg # of iterations =  3.0

     Threshold (ethr) on eigenvalues was too large:
     Diagonalizing with lowered threshold

     Davidson diagonalization with overlap

---- Real-time Memory Report at c_bands before calling an iterative solver
          4338 MiB given to the printing process from OS
          -829 MiB allocation reported by mallinfo(arena+hblkhd)
        254658 MiB available memory on the node where the printing process lives
     GPU memory used/free/total (MiB): 5816 / 10344 / 16160
------------------
     ethr =  7.36E-08,  avg # of iterations =  3.5

     total cpu time spent up to now is      157.4 secs

     total energy              =   -7560.68658264 Ry
     estimated scf accuracy    <       0.00124656 Ry
[tb_dev] Currently allocated     1.87E+03 Mbytes, locked:    0 /  12
[tb_pin] Currently allocated     5.19E+01 Mbytes, locked:    0 /   1

     iteration #  2     ecut=    40.00 Ry     beta= 0.70
     Davidson diagonalization with overlap

---- Real-time Memory Report at c_bands before calling an iterative solver
          4338 MiB given to the printing process from OS
          -810 MiB allocation reported by mallinfo(arena+hblkhd)
        254771 MiB available memory on the node where the printing process lives
     GPU memory used/free/total (MiB): 5816 / 10344 / 16160
------------------
