
     Program PWSCF v.6.8 starts on 29Sep2021 at 15:18:28 

     This program is part of the open-source Quantum ESPRESSO suite
     for quantum simulation of materials; please cite
         "P. Giannozzi et al., J. Phys.:Condens. Matter 21 395502 (2009);
         "P. Giannozzi et al., J. Phys.:Condens. Matter 29 465901 (2017);
         "P. Giannozzi et al., J. Chem. Phys. 152 154105 (2020);
          URL http://www.quantum-espresso.org", 
     in publications or presentations arising from this work. More details at
     http://www.quantum-espresso.org/quote

     Parallel version (MPI & OpenMP), running on     128 processor cores
     Number of MPI processes:                32
     Threads/MPI process:                     4

     MPI processes distributed on     4 nodes
     K-points division:     npool     =       8
     R & G space division:  proc/nbgrp/npool/nimage =       4
     267500 MiB available memory on the printing compute node when the environment starts
 
     Reading input from input_quarzo_72
Warning: card &CELL ignored
Warning: card / ignored

     Current dimensions of program PWSCF are:
     Max number of different atomic species (ntypx) = 10
     Max number of k-points (npk) =  40000
     Max angular momentum in pseudopotentials (lmaxx) =  4

     Subspace diagonalization in iterative solution of the eigenvalue problem:
     a serial algorithm will be used

 
     Parallelization info
     --------------------
     sticks:   dense  smooth     PW     G-vecs:    dense   smooth      PW
     Min        1485     952    252               101862    52160    7112
     Max        1486     953    253               101863    52163    7115
     Sum        5941    3811   1011               407451   208645   28457
 
     Using Slab Decomposition
 

     Title: 
     'srtio_bulk'                                                               


     bravais-lattice index     =            8
     lattice parameter (alat)  =      18.5722  a.u.
     unit-cell volume          =    6102.1621 (a.u.)^3
     number of atoms/cell      =           72
     number of atomic types    =            2
     number of electrons       =       384.15
     number of Kohn-Sham states=          230
     kinetic-energy cutoff     =      40.0000  Ry
     charge density cutoff     =     250.0000  Ry
     scf convergence threshold =      1.0E-10
     mixing beta               =       0.7000
     number of iterations used =            8  plain     mixing
     Exchange-correlation= PBESOL
                           (   1   4  10   8   0   0   0)

     GPU acceleration is ACTIVE.


     GPU used by master process:

        Device Number: 0
        Device name: Tesla V100-SXM2-16GB
        Compute capability : 70
        Ratio of single to double precision performance  : 2
        Memory Clock Rate (KHz): 877000
        Memory Bus Width (bits): 4096
        Peak Memory Bandwidth (GB/s): 898.05

     celldm(1)=  18.572236  celldm(2)=   0.866025  celldm(3)=   1.099919
     celldm(4)=   0.000000  celldm(5)=   0.000000  celldm(6)=   0.000000

     crystal axes: (cart. coord. in units of alat)
               a(1) = (   1.000000   0.000000   0.000000 )  
               a(2) = (   0.000000   0.866025   0.000000 )  
               a(3) = (   0.000000   0.000000   1.099919 )  

     reciprocal axes: (cart. coord. in units 2 pi/alat)
               b(1) = (  1.000000  0.000000  0.000000 )  
               b(2) = (  0.000000  1.154701  0.000000 )  
               b(3) = (  0.000000  0.000000  0.909158 )  


     PseudoPot. # 1 for Si read from file:
     ./Si.pbesol-n-rrkjus_psl.0.1.UPF
     MD5 check sum: 84986bd6be9e79932892c86d18f23292
     Pseudo is Ultrasoft + core correction, Zval =  4.0
     Generated using "atomic" code by A. Dal Corso  v.5.0.2 svn rev. 9415
     Using radial grid of 1141 points,  4 beta functions with: 
                l(1) =   0
                l(2) =   0
                l(3) =   1
                l(4) =   1
     Q(r) pseudized with 0 coefficients 


     PseudoPot. # 2 for O  read from file:
     ./O.pbesol-n-rrkjus_psl.0.1.UPF
     MD5 check sum: 860b55360c6eac1e4db712ce01d51bd8
     Pseudo is Ultrasoft + core correction, Zval =  6.0
     Generated using "atomic" code by A. Dal Corso  v.5.0.2 svn rev. 9415
     Using radial grid of 1095 points,  4 beta functions with: 
                l(1) =   0
                l(2) =   0
                l(3) =   1
                l(4) =   1
     Q(r) pseudized with 0 coefficients 


     atomic species   valence    mass     pseudopotential
        Si             4.00    47.86700     Si( 1.00)
        O              6.00    15.99940     O ( 1.00)

     No symmetry found


                                    s                        frac. trans.

      isym =  1     identity                                     

 cryst.   s( 1) = (     1          0          0      )
                  (     0          1          0      )
                  (     0          0          1      )

 cart.    s( 1) = (  1.0000000  0.0000000  0.0000000 )
                  (  0.0000000  1.0000000  0.0000000 )
                  (  0.0000000  0.0000000  1.0000000 )


     point group C_1 (1)    
     there are  1 classes
     the character table:

       E    
A      1.00

     the symmetry operations in each class and the name of the first element:

     E        1
          identity                                               

   Cartesian axes

     site n.     atom                  positions (alat units)
         1           Si  tau(   1) = (   0.2355748   0.0000000   0.0050000  )
         2           Si  tau(   2) = (   0.7355740   0.0000000   0.0000000  )
         3           Si  tau(   3) = (   0.4837426   0.4330127   0.0000000  )
         4           Si  tau(   4) = (   0.9837428   0.4330127   0.0000000  )
         5           O   tau(   5) = (   0.1399330   0.7468191   0.0592783  )
         6           O   tau(   6) = (   0.6399333   0.7468194   0.0592781  )
         7           O   tau(   7) = (   0.3899585   0.3155363   0.0664835  )
         8           O   tau(   8) = (   0.8899585   0.3155364   0.0664834  )
         9           O   tau(   9) = (   0.3295175   0.0595912   0.1212122  )
        10           O   tau(  10) = (   0.8295178   0.0595915   0.1212125  )
        11           O   tau(  11) = (   0.0780999   0.4951203   0.1195990  )
        12           O   tau(  12) = (   0.5781001   0.4951206   0.1195992  )
        13           Si  tau(  13) = (   0.3830223   0.2012812   0.1849168  )
        14           Si  tau(  14) = (   0.8830220   0.2012810   0.1849170  )
        15           Si  tau(  15) = (   0.1325113   0.6368575   0.1814030  )
        16           Si  tau(  16) = (   0.6325105   0.6368573   0.1814029  )
        17           O   tau(  17) = (   0.0310655   0.1757238   0.2508380  )
        18           O   tau(  18) = (   0.5310658   0.1757238   0.2508382  )
        19           O   tau(  19) = (   0.2812336   0.6139772   0.2463051  )
        20           O   tau(  20) = (   0.7812344   0.6139772   0.2463055  )
        21           O   tau(  21) = (   0.0310649   0.6903017   0.2991218  )
        22           O   tau(  22) = (   0.5310652   0.6903017   0.2991216  )
        23           O   tau(  23) = (   0.2812330   0.2520483   0.3036548  )
        24           O   tau(  24) = (   0.7812338   0.2520482   0.3036543  )
        25           Si  tau(  25) = (   0.3830225   0.6647441   0.3650416  )
        26           Si  tau(  26) = (   0.8830221   0.6647443   0.3650414  )
        27           Si  tau(  27) = (   0.1325115   0.2291678   0.3685554  )
        28           Si  tau(  28) = (   0.6325107   0.2291680   0.3685555  )
        29           O   tau(  29) = (   0.3295173   0.8064345   0.4287473  )
        30           O   tau(  30) = (   0.8295177   0.8064342   0.4287470  )
        31           O   tau(  31) = (   0.0780997   0.3709054   0.4303606  )
        32           O   tau(  32) = (   0.5780999   0.3709051   0.4303604  )
        33           O   tau(  33) = (   0.1399331   0.1192060   0.4906812  )
        34           O   tau(  34) = (   0.6399334   0.1192057   0.4906814  )
        35           O   tau(  35) = (   0.3899586   0.5504888   0.4834761  )
        36           O   tau(  36) = (   0.8899586   0.5504887   0.4834762  )
        37           Si  tau(  37) = (   0.2355748   0.0000000   0.5499593  )
        38           Si  tau(  38) = (   0.7355740   0.0000000   0.5499593  )
        39           Si  tau(  39) = (   0.4837426   0.4330127   0.5499593  )
        40           Si  tau(  40) = (   0.9837428   0.4330127   0.5499593  )
        41           O   tau(  41) = (   0.1399331   0.7468194   0.6092374  )
        42           O   tau(  42) = (   0.6399334   0.7468197   0.6092372  )
        43           O   tau(  43) = (   0.3899586   0.3155366   0.6164425  )
        44           O   tau(  44) = (   0.8899586   0.3155367   0.6164424  )
        45           O   tau(  45) = (   0.3295173   0.0595909   0.6711713  )
        46           O   tau(  46) = (   0.8295177   0.0595912   0.6711716  )
        47           O   tau(  47) = (   0.0780997   0.4951200   0.6695580  )
        48           O   tau(  48) = (   0.5780999   0.4951203   0.6695582  )
        49           Si  tau(  49) = (   0.3830225   0.2012813   0.7348770  )
        50           Si  tau(  50) = (   0.8830221   0.2012811   0.7348772  )
        51           Si  tau(  51) = (   0.1325115   0.6368576   0.7313632  )
        52           Si  tau(  52) = (   0.6325107   0.6368574   0.7313631  )
        53           O   tau(  53) = (   0.0310649   0.1757237   0.8007968  )
        54           O   tau(  54) = (   0.5310652   0.1757237   0.8007970  )
        55           O   tau(  55) = (   0.2812330   0.6139771   0.7962638  )
        56           O   tau(  56) = (   0.7812338   0.6139772   0.7962643  )
        57           O   tau(  57) = (   0.0310655   0.6903016   0.8490806  )
        58           O   tau(  58) = (   0.5310658   0.6903016   0.8490804  )
        59           O   tau(  59) = (   0.2812336   0.2520482   0.8536135  )
        60           O   tau(  60) = (   0.7812344   0.2520482   0.8536131  )
        61           Si  tau(  61) = (   0.3830223   0.6647442   0.9150018  )
        62           Si  tau(  62) = (   0.8830220   0.6647444   0.9150016  )
        63           Si  tau(  63) = (   0.1325113   0.2291679   0.9185156  )
        64           Si  tau(  64) = (   0.6325105   0.2291681   0.9185157  )
        65           O   tau(  65) = (   0.3295175   0.8064342   0.9787064  )
        66           O   tau(  66) = (   0.8295178   0.8064339   0.9787061  )
        67           O   tau(  67) = (   0.0780999   0.3709051   0.9803196  )
        68           O   tau(  68) = (   0.5781001   0.3709048   0.9803194  )
        69           O   tau(  69) = (   0.1399330   0.1192063   1.0406403  )
        70           O   tau(  70) = (   0.6399333   0.1192060   1.0406405  )
        71           O   tau(  71) = (   0.3899585   0.5504891   1.0334351  )
        72           O   tau(  72) = (   0.8899585   0.5504890   1.0334352  )

   Crystallographic axes

     site n.     atom                  positions (cryst. coord.)
         1           Si  tau(   1) = (  0.2355748  0.0000000  0.0045458  )
         2           Si  tau(   2) = (  0.7355740  0.0000000  0.0000000  )
         3           Si  tau(   3) = (  0.4837426  0.5000000  0.0000000  )
         4           Si  tau(   4) = (  0.9837428  0.5000000  0.0000000  )
         5           O   tau(   5) = (  0.1399330  0.8623525  0.0538934  )
         6           O   tau(   6) = (  0.6399333  0.8623528  0.0538932  )
         7           O   tau(   7) = (  0.3899585  0.3643499  0.0604440  )
         8           O   tau(   8) = (  0.8899585  0.3643500  0.0604439  )
         9           O   tau(   9) = (  0.3295175  0.0688100  0.1102011  )
        10           O   tau(  10) = (  0.8295178  0.0688103  0.1102013  )
        11           O   tau(  11) = (  0.0780999  0.5717157  0.1087344  )
        12           O   tau(  12) = (  0.5781001  0.5717160  0.1087346  )
        13           Si  tau(  13) = (  0.3830223  0.2324195  0.1681186  )
        14           Si  tau(  14) = (  0.8830220  0.2324193  0.1681188  )
        15           Si  tau(  15) = (  0.1325113  0.7353797  0.1649240  )
        16           Si  tau(  16) = (  0.6325105  0.7353794  0.1649240  )
        17           O   tau(  17) = (  0.0310655  0.2029083  0.2280514  )
        18           O   tau(  18) = (  0.5310658  0.2029084  0.2280516  )
        19           O   tau(  19) = (  0.2812336  0.7089598  0.2239303  )
        20           O   tau(  20) = (  0.7812344  0.7089598  0.2239307  )
        21           O   tau(  21) = (  0.0310649  0.7970918  0.2719490  )
        22           O   tau(  22) = (  0.5310652  0.7970917  0.2719489  )
        23           O   tau(  23) = (  0.2812330  0.2910403  0.2760702  )
        24           O   tau(  24) = (  0.7812338  0.2910402  0.2760698  )
        25           Si  tau(  25) = (  0.3830225  0.7675804  0.3318806  )
        26           Si  tau(  26) = (  0.8830221  0.7675806  0.3318803  )
        27           Si  tau(  27) = (  0.1325115  0.2646201  0.3350752  )
        28           Si  tau(  28) = (  0.6325107  0.2646204  0.3350752  )
        29           O   tau(  29) = (  0.3295173  0.9311903  0.3897991  )
        30           O   tau(  30) = (  0.8295177  0.9311900  0.3897989  )
        31           O   tau(  31) = (  0.0780997  0.4282847  0.3912658  )
        32           O   tau(  32) = (  0.5780999  0.4282844  0.3912657  )
        33           O   tau(  33) = (  0.1399331  0.1376472  0.4461069  )
        34           O   tau(  34) = (  0.6399334  0.1376469  0.4461070  )
        35           O   tau(  35) = (  0.3899586  0.6356497  0.4395563  )
        36           O   tau(  36) = (  0.8899586  0.6356496  0.4395563  )
        37           Si  tau(  37) = (  0.2355748  0.0000000  0.5000000  )
        38           Si  tau(  38) = (  0.7355740  0.0000000  0.5000000  )
        39           Si  tau(  39) = (  0.4837426  0.5000000  0.5000000  )
        40           Si  tau(  40) = (  0.9837428  0.5000000  0.5000000  )
        41           O   tau(  41) = (  0.1399331  0.8623528  0.5538931  )
        42           O   tau(  42) = (  0.6399334  0.8623531  0.5538930  )
        43           O   tau(  43) = (  0.3899586  0.3643503  0.5604437  )
        44           O   tau(  44) = (  0.8899586  0.3643504  0.5604437  )
        45           O   tau(  45) = (  0.3295173  0.0688097  0.6102009  )
        46           O   tau(  46) = (  0.8295177  0.0688100  0.6102011  )
        47           O   tau(  47) = (  0.0780997  0.5717153  0.6087342  )
        48           O   tau(  48) = (  0.5780999  0.5717156  0.6087343  )
        49           Si  tau(  49) = (  0.3830225  0.2324196  0.6681194  )
        50           Si  tau(  50) = (  0.8830221  0.2324194  0.6681197  )
        51           Si  tau(  51) = (  0.1325115  0.7353799  0.6649248  )
        52           Si  tau(  52) = (  0.6325107  0.7353796  0.6649248  )
        53           O   tau(  53) = (  0.0310649  0.2029082  0.7280510  )
        54           O   tau(  54) = (  0.5310652  0.2029083  0.7280511  )
        55           O   tau(  55) = (  0.2812330  0.7089597  0.7239298  )
        56           O   tau(  56) = (  0.7812338  0.7089598  0.7239302  )
        57           O   tau(  57) = (  0.0310655  0.7970917  0.7719486  )
        58           O   tau(  58) = (  0.5310658  0.7970916  0.7719484  )
        59           O   tau(  59) = (  0.2812336  0.2910402  0.7760697  )
        60           O   tau(  60) = (  0.7812344  0.2910402  0.7760693  )
        61           Si  tau(  61) = (  0.3830223  0.7675805  0.8318814  )
        62           Si  tau(  62) = (  0.8830220  0.7675807  0.8318812  )
        63           Si  tau(  63) = (  0.1325113  0.2646203  0.8350760  )
        64           Si  tau(  64) = (  0.6325105  0.2646206  0.8350760  )
        65           O   tau(  65) = (  0.3295175  0.9311900  0.8897989  )
        66           O   tau(  66) = (  0.8295178  0.9311897  0.8897987  )
        67           O   tau(  67) = (  0.0780999  0.4282843  0.8912656  )
        68           O   tau(  68) = (  0.5781001  0.4282840  0.8912654  )
        69           O   tau(  69) = (  0.1399330  0.1376475  0.9461066  )
        70           O   tau(  70) = (  0.6399333  0.1376472  0.9461068  )
        71           O   tau(  71) = (  0.3899585  0.6356501  0.9395560  )
        72           O   tau(  72) = (  0.8899585  0.6356500  0.9395561  )

     number of k points=     8  Gaussian smearing, width (Ry)=  0.0100
                       cart. coord. in units 2pi/alat
        k(    1) = (   0.2500000   0.1443376   0.2272895), wk =   0.2500000
        k(    2) = (   0.2500000   0.4330127   0.2272895), wk =   0.2500000
        k(    3) = (  -0.2500000  -0.1443376   0.2272895), wk =   0.2500000
        k(    4) = (  -0.2500000   0.1443376  -0.2272895), wk =   0.2500000
        k(    5) = (   0.2500000  -0.1443376  -0.2272895), wk =   0.2500000
        k(    6) = (  -0.2500000  -0.4330127   0.2272895), wk =   0.2500000
        k(    7) = (  -0.2500000   0.4330127  -0.2272895), wk =   0.2500000
        k(    8) = (   0.2500000  -0.4330127  -0.2272895), wk =   0.2500000

                       cryst. coord.
        k(    1) = (   0.2500000   0.1250000   0.2500000), wk =   0.2500000
        k(    2) = (   0.2500000   0.3750000   0.2500000), wk =   0.2500000
        k(    3) = (  -0.2500000  -0.1250000   0.2500000), wk =   0.2500000
        k(    4) = (  -0.2500000   0.1250000  -0.2500000), wk =   0.2500000
        k(    5) = (   0.2500000  -0.1250000  -0.2500000), wk =   0.2500000
        k(    6) = (  -0.2500000  -0.3750000   0.2500000), wk =   0.2500000
        k(    7) = (  -0.2500000   0.3750000  -0.2500000), wk =   0.2500000
        k(    8) = (   0.2500000  -0.3750000  -0.2500000), wk =   0.2500000

     Dense  grid:   407451 G-vectors     FFT dimensions: (  96,  81, 108)

     Smooth grid:   208645 G-vectors     FFT dimensions: (  75,  72,  90)

     Dynamical RAM for                 wfc:      22.87 MB

     Dynamical RAM for     wfc (w. buffer):      22.87 MB

     Dynamical RAM for           str. fact:       3.11 MB

     Dynamical RAM for           local pot:       0.00 MB

     Dynamical RAM for          nlocal pot:      57.28 MB

     Dynamical RAM for                qrad:       0.73 MB

     Dynamical RAM for          rho,v,vnew:       9.47 MB

     Dynamical RAM for               rhoin:       3.16 MB

     Dynamical RAM for            rho*nmix:      24.87 MB

     Dynamical RAM for           G-vectors:       6.23 MB

     Dynamical RAM for          h,s,v(r/c):       9.69 MB

     Dynamical RAM for          <psi|beta>:       2.02 MB

     Dynamical RAM for                 psi:      45.74 MB

     Dynamical RAM for                hpsi:      45.74 MB

     Dynamical RAM for                spsi:      45.74 MB

     Dynamical RAM for      wfcinit/wfcrot:      59.18 MB

     Dynamical RAM for           addusdens:      19.04 MB

     Dynamical RAM for          addusforce:      36.76 MB

     Estimated static dynamical RAM per process >     115.51 MB

     Estimated max dynamical RAM per process >     289.31 MB

     Estimated total dynamical RAM >       8.36 GB

     Check: negative core charge=   -0.000375

     Initial potential from superposition of free atoms

     starting charge  383.98696, renormalised to  384.15000
     Starting wfcs are  288 randomized atomic wfcs

     total cpu time spent up to now is        4.4 secs

     per-process dynamical memory:   800.4 Mb

     Self-consistent Calculation
[tb_dev] Currently allocated     3.66E+01 Mbytes, locked:    0 /  11
[tb_pin] Currently allocated     0.00E+00 Mbytes, locked:    0 /   0

     iteration #  1     ecut=    40.00 Ry     beta= 0.70
     Davidson diagonalization with overlap

---- Real-time Memory Report at c_bands before calling an iterative solver
          1310 MiB given to the printing process from OS
           782 MiB allocation reported by mallinfo(arena+hblkhd)
        259409 MiB available memory on the node where the printing process lives
     GPU memory used/free/total (MiB): 1649 / 14511 / 16160
------------------
     ethr =  1.00E-02,  avg # of iterations =  3.0

     total cpu time spent up to now is        5.3 secs

     total energy              =   -1883.40381216 Ry
     estimated scf accuracy    <      17.29664250 Ry
[tb_dev] Currently allocated     4.59E+01 Mbytes, locked:    0 /  12
[tb_pin] Currently allocated     3.23E+00 Mbytes, locked:    0 /   1

     iteration #  2     ecut=    40.00 Ry     beta= 0.70
     Davidson diagonalization with overlap

---- Real-time Memory Report at c_bands before calling an iterative solver
          1345 MiB given to the printing process from OS
           815 MiB allocation reported by mallinfo(arena+hblkhd)
        259024 MiB available memory on the node where the printing process lives
     GPU memory used/free/total (MiB): 1681 / 14479 / 16160
------------------
     ethr =  4.50E-03,  avg # of iterations =  3.0

     total cpu time spent up to now is        6.1 secs

     total energy              =   -1889.23665613 Ry
     estimated scf accuracy    <       9.33639109 Ry
[tb_dev] Currently allocated     4.59E+01 Mbytes, locked:    0 /  12
[tb_pin] Currently allocated     3.23E+00 Mbytes, locked:    0 /   1

     iteration #  3     ecut=    40.00 Ry     beta= 0.70
     Davidson diagonalization with overlap

---- Real-time Memory Report at c_bands before calling an iterative solver
          1346 MiB given to the printing process from OS
           817 MiB allocation reported by mallinfo(arena+hblkhd)
        258982 MiB available memory on the node where the printing process lives
     GPU memory used/free/total (MiB): 1681 / 14479 / 16160
------------------
     ethr =  2.43E-03,  avg # of iterations =  2.0

     total cpu time spent up to now is        6.9 secs

     total energy              =   -1890.52668314 Ry
     estimated scf accuracy    <       0.18303784 Ry
[tb_dev] Currently allocated     4.59E+01 Mbytes, locked:    0 /  12
[tb_pin] Currently allocated     3.23E+00 Mbytes, locked:    0 /   1

     iteration #  4     ecut=    40.00 Ry     beta= 0.70
     Davidson diagonalization with overlap

---- Real-time Memory Report at c_bands before calling an iterative solver
          1346 MiB given to the printing process from OS
           819 MiB allocation reported by mallinfo(arena+hblkhd)
        258975 MiB available memory on the node where the printing process lives
     GPU memory used/free/total (MiB): 1681 / 14479 / 16160
------------------
     c_bands:  1 eigenvalues not converged
     ethr =  4.76E-05,  avg # of iterations = 19.8

     total cpu time spent up to now is        8.7 secs

     total energy              =   -1890.64936861 Ry
     estimated scf accuracy    <       0.13176251 Ry
[tb_dev] Currently allocated     4.59E+01 Mbytes, locked:    0 /  12
[tb_pin] Currently allocated     3.23E+00 Mbytes, locked:    0 /   1

     iteration #  5     ecut=    40.00 Ry     beta= 0.70
     Davidson diagonalization with overlap

---- Real-time Memory Report at c_bands before calling an iterative solver
          1350 MiB given to the printing process from OS
           822 MiB allocation reported by mallinfo(arena+hblkhd)
        258967 MiB available memory on the node where the printing process lives
     GPU memory used/free/total (MiB): 1681 / 14479 / 16160
------------------
     ethr =  3.43E-05,  avg # of iterations =  3.9

     total cpu time spent up to now is        9.6 secs

     total energy              =   -1890.65085973 Ry
     estimated scf accuracy    <       0.02628241 Ry
[tb_dev] Currently allocated     4.59E+01 Mbytes, locked:    0 /  12
[tb_pin] Currently allocated     3.23E+00 Mbytes, locked:    0 /   1

     iteration #  6     ecut=    40.00 Ry     beta= 0.70
     Davidson diagonalization with overlap

---- Real-time Memory Report at c_bands before calling an iterative solver
          1356 MiB given to the printing process from OS
           824 MiB allocation reported by mallinfo(arena+hblkhd)
        258956 MiB available memory on the node where the printing process lives
     GPU memory used/free/total (MiB): 1681 / 14479 / 16160
------------------
     c_bands:  3 eigenvalues not converged
     ethr =  6.84E-06,  avg # of iterations = 15.5

     total cpu time spent up to now is       11.4 secs

     total energy              =   -1890.65180650 Ry
     estimated scf accuracy    <       0.00589223 Ry
[tb_dev] Currently allocated     4.59E+01 Mbytes, locked:    0 /  12
[tb_pin] Currently allocated     3.23E+00 Mbytes, locked:    0 /   1

     iteration #  7     ecut=    40.00 Ry     beta= 0.70
     Davidson diagonalization with overlap

---- Real-time Memory Report at c_bands before calling an iterative solver
          1357 MiB given to the printing process from OS
           826 MiB allocation reported by mallinfo(arena+hblkhd)
        258951 MiB available memory on the node where the printing process lives
     GPU memory used/free/total (MiB): 1681 / 14479 / 16160
------------------
     ethr =  1.53E-06,  avg # of iterations = 11.3

     total cpu time spent up to now is       13.4 secs

     total energy              =   -1890.65261695 Ry
     estimated scf accuracy    <       0.00055174 Ry
[tb_dev] Currently allocated     4.59E+01 Mbytes, locked:    0 /  12
[tb_pin] Currently allocated     3.23E+00 Mbytes, locked:    0 /   1

     iteration #  8     ecut=    40.00 Ry     beta= 0.70
     Davidson diagonalization with overlap

---- Real-time Memory Report at c_bands before calling an iterative solver
          1357 MiB given to the printing process from OS
           827 MiB allocation reported by mallinfo(arena+hblkhd)
        258940 MiB available memory on the node where the printing process lives
     GPU memory used/free/total (MiB): 1681 / 14479 / 16160
------------------
     ethr =  1.44E-07,  avg # of iterations =  4.0

     total cpu time spent up to now is       14.1 secs

     total energy              =   -1890.65257326 Ry
     estimated scf accuracy    <       0.00024574 Ry
[tb_dev] Currently allocated     4.59E+01 Mbytes, locked:    0 /  12
[tb_pin] Currently allocated     3.23E+00 Mbytes, locked:    0 /   1

     iteration #  9     ecut=    40.00 Ry     beta= 0.70
     Davidson diagonalization with overlap

---- Real-time Memory Report at c_bands before calling an iterative solver
          1360 MiB given to the printing process from OS
           829 MiB allocation reported by mallinfo(arena+hblkhd)
        258933 MiB available memory on the node where the printing process lives
     GPU memory used/free/total (MiB): 1681 / 14479 / 16160
------------------
     ethr =  6.40E-08,  avg # of iterations =  2.0

     total cpu time spent up to now is       14.8 secs

     total energy              =   -1890.65260268 Ry
     estimated scf accuracy    <       0.00001832 Ry
[tb_dev] Currently allocated     4.59E+01 Mbytes, locked:    0 /  12
[tb_pin] Currently allocated     3.23E+00 Mbytes, locked:    0 /   1

     iteration # 10     ecut=    40.00 Ry     beta= 0.70
     Davidson diagonalization with overlap

---- Real-time Memory Report at c_bands before calling an iterative solver
          1361 MiB given to the printing process from OS
           831 MiB allocation reported by mallinfo(arena+hblkhd)
        258928 MiB available memory on the node where the printing process lives
     GPU memory used/free/total (MiB): 1681 / 14479 / 16160
------------------
     ethr =  4.77E-09,  avg # of iterations =  4.4

     total cpu time spent up to now is       15.7 secs

     total energy              =   -1890.65261135 Ry
     estimated scf accuracy    <       0.00000076 Ry
[tb_dev] Currently allocated     4.59E+01 Mbytes, locked:    0 /  12
[tb_pin] Currently allocated     3.23E+00 Mbytes, locked:    0 /   1

     iteration # 11     ecut=    40.00 Ry     beta= 0.70
     Davidson diagonalization with overlap

---- Real-time Memory Report at c_bands before calling an iterative solver
          1361 MiB given to the printing process from OS
           831 MiB allocation reported by mallinfo(arena+hblkhd)
        258922 MiB available memory on the node where the printing process lives
     GPU memory used/free/total (MiB): 1681 / 14479 / 16160
------------------
     ethr =  1.99E-10,  avg # of iterations =  4.0

     total cpu time spent up to now is       16.6 secs

     total energy              =   -1890.65261127 Ry
     estimated scf accuracy    <       0.00000050 Ry
[tb_dev] Currently allocated     4.59E+01 Mbytes, locked:    0 /  12
[tb_pin] Currently allocated     3.23E+00 Mbytes, locked:    0 /   1

     iteration # 12     ecut=    40.00 Ry     beta= 0.70
     Davidson diagonalization with overlap

---- Real-time Memory Report at c_bands before calling an iterative solver
          1361 MiB given to the printing process from OS
           831 MiB allocation reported by mallinfo(arena+hblkhd)
        258922 MiB available memory on the node where the printing process lives
     GPU memory used/free/total (MiB): 1681 / 14479 / 16160
------------------
     ethr =  1.29E-10,  avg # of iterations =  2.0

     total cpu time spent up to now is       17.3 secs

     total energy              =   -1890.65261133 Ry
     estimated scf accuracy    <       0.00000002 Ry
[tb_dev] Currently allocated     4.59E+01 Mbytes, locked:    0 /  12
[tb_pin] Currently allocated     3.23E+00 Mbytes, locked:    0 /   1

     iteration # 13     ecut=    40.00 Ry     beta= 0.70
     Davidson diagonalization with overlap

---- Real-time Memory Report at c_bands before calling an iterative solver
          1364 MiB given to the printing process from OS
           831 MiB allocation reported by mallinfo(arena+hblkhd)
        258924 MiB available memory on the node where the printing process lives
     GPU memory used/free/total (MiB): 1681 / 14479 / 16160
------------------
     ethr =  4.46E-12,  avg # of iterations =  5.0

     total cpu time spent up to now is       18.2 secs

     total energy              =   -1890.65261134 Ry
     estimated scf accuracy    <          6.9E-09 Ry
[tb_dev] Currently allocated     4.59E+01 Mbytes, locked:    0 /  12
[tb_pin] Currently allocated     3.23E+00 Mbytes, locked:    0 /   1

     iteration # 14     ecut=    40.00 Ry     beta= 0.70
     Davidson diagonalization with overlap

---- Real-time Memory Report at c_bands before calling an iterative solver
          1364 MiB given to the printing process from OS
           831 MiB allocation reported by mallinfo(arena+hblkhd)
        258921 MiB available memory on the node where the printing process lives
     GPU memory used/free/total (MiB): 1681 / 14479 / 16160
------------------
     ethr =  1.80E-12,  avg # of iterations =  1.5

     total cpu time spent up to now is       18.9 secs

     total energy              =   -1890.65261134 Ry
     estimated scf accuracy    <          1.8E-09 Ry
[tb_dev] Currently allocated     4.59E+01 Mbytes, locked:    0 /  12
[tb_pin] Currently allocated     3.23E+00 Mbytes, locked:    0 /   1

     iteration # 15     ecut=    40.00 Ry     beta= 0.70
     Davidson diagonalization with overlap

---- Real-time Memory Report at c_bands before calling an iterative solver
          1364 MiB given to the printing process from OS
           831 MiB allocation reported by mallinfo(arena+hblkhd)
        258921 MiB available memory on the node where the printing process lives
     GPU memory used/free/total (MiB): 1681 / 14479 / 16160
------------------
     ethr =  4.70E-13,  avg # of iterations =  4.0

     total cpu time spent up to now is       19.7 secs

     End of self-consistent calculation

          k = 0.2500 0.1443 0.2273 ( 26067 PWs)   bands (ev):

   -16.8271 -16.6013 -16.5727 -16.4296 -16.4055 -16.3221 -16.3026 -16.2601
   -16.1599 -16.0291 -16.0251 -15.9222 -15.8978 -15.8364 -15.7401 -15.6370
   -15.5089 -15.4161 -15.3599 -15.3196 -15.2955 -15.1708 -15.1359 -14.9135
   -14.8182 -14.7958 -14.7856 -14.7759 -14.7696 -14.7579 -14.7535 -14.7471
   -14.7390 -14.7338 -14.7280 -14.7198 -14.7121 -14.7110 -14.7046 -14.7012
   -14.6969 -14.6867 -14.6827 -14.6764 -14.6655 -14.6606 -14.6404 -14.5088
    -6.6542  -6.1341  -6.1017  -5.9432  -5.9066  -5.8879  -5.7710  -5.5501
    -5.2399  -5.0335  -4.8859  -4.8173  -4.7674  -4.5432  -4.5391  -4.2756
    -4.0416  -3.9858  -3.8996  -3.8278  -3.6381  -3.5475  -3.4244  -3.1191
    -3.0355  -3.0061  -2.9580  -2.9414  -2.9200  -2.8934  -2.8817  -2.8483
    -2.8149  -2.8042  -2.7558  -2.7397  -2.7186  -2.6362  -2.5797  -2.5371
    -2.5264  -2.4810  -2.4612  -2.4160  -2.3250  -2.2734  -2.1859  -2.1208
    -0.8230  -0.8033  -0.7619  -0.7052  -0.6698  -0.6307  -0.6257  -0.6059
    -0.5575  -0.5151  -0.4968  -0.4732  -0.4488  -0.3910  -0.3819  -0.3500
    -0.2792  -0.2425  -0.2004  -0.1931  -0.1814  -0.1620  -0.0646  -0.0314
     0.0886   0.1321   0.1411   0.1607   0.2672   0.2770   0.3425   0.3951
     0.4064   0.4258   0.4629   0.4911   0.5010   0.5156   0.5273   0.5879
     0.6201   0.6707   0.7170   0.7408   0.7731   0.8333   0.8524   0.8651
     0.9067   0.9457   0.9950   1.0190   1.0319   1.0490   1.0827   1.1547
     1.1786   1.2174   1.2249   1.2416   1.2766   1.3109   1.3196   1.3282
     1.3558   1.3931   1.4455   1.4602   1.4950   1.5299   1.5460   1.5513
     1.6798   1.7186   1.7438   1.7570   1.7951   1.8068   1.8535   1.9088
     1.9310   1.9819   2.0712   2.0739   2.1026   2.1068   2.1155   2.1320
     2.2227   2.2284   2.2893   2.3381   2.3480   2.4033   2.4269   2.4347
     8.6045   9.6244   9.7368  10.4629  10.5250  10.9424  10.9748  11.0517
    11.2005  11.3227  11.3553  11.3747  11.3917  11.4503  11.4962  11.5242
    11.6026  11.6654  11.7058  11.7363  11.7446  11.8015  11.9282  11.9364
    11.9617  11.9803  12.0669  12.0824  12.1706  12.1996  12.2600  12.2878
    12.3757  12.3882  12.4796  12.5368  12.5631  12.6493

     occupation numbers 
     1.0000   1.0000   1.0000   1.0000   1.0000   1.0000   1.0000   1.0000
     1.0000   1.0000   1.0000   1.0000   1.0000   1.0000   1.0000   1.0000
     1.0000   1.0000   1.0000   1.0000   1.0000   1.0000   1.0000   1.0000
     1.0000   1.0000   1.0000   1.0000   1.0000   1.0000   1.0000   1.0000
     1.0000   1.0000   1.0000   1.0000   1.0000   1.0000   1.0000   1.0000
     1.0000   1.0000   1.0000   1.0000   1.0000   1.0000   1.0000   1.0000
     1.0000   1.0000   1.0000   1.0000   1.0000   1.0000   1.0000   1.0000
     1.0000   1.0000   1.0000   1.0000   1.0000   1.0000   1.0000   1.0000
     1.0000   1.0000   1.0000   1.0000   1.0000   1.0000   1.0000   1.0000
     1.0000   1.0000   1.0000   1.0000   1.0000   1.0000   1.0000   1.0000
     1.0000   1.0000   1.0000   1.0000   1.0000   1.0000   1.0000   1.0000
     1.0000   1.0000   1.0000   1.0000   1.0000   1.0000   1.0000   1.0000
     1.0000   1.0000   1.0000   1.0000   1.0000   1.0000   1.0000   1.0000
     1.0000   1.0000   1.0000   1.0000   1.0000   1.0000   1.0000   1.0000
     1.0000   1.0000   1.0000   1.0000   1.0000   1.0000   1.0000   1.0000
     1.0000   1.0000   1.0000   1.0000   1.0000   1.0000   1.0000   1.0000
     1.0000   1.0000   1.0000   1.0000   1.0000   1.0000   1.0000   1.0000
     1.0000   1.0000   1.0000   1.0000   1.0000   1.0000   1.0000   1.0000
     1.0000   1.0000   1.0000   1.0000   1.0000   1.0000   1.0000   1.0000
     1.0000   1.0000   1.0000   1.0000   1.0000   1.0000   1.0000   1.0000
     1.0000   1.0000   1.0000   1.0000   1.0000   1.0000   1.0000   1.0000
     1.0000   1.0000   1.0000   1.0000   1.0000   1.0000   1.0000   1.0000
     1.0000   1.0000   1.0000   1.0000   1.0000   1.0000   1.0000   1.0000
     1.0000   1.0000   1.0000   1.0000   1.0000   1.0000   1.0000   1.0000
     0.1543   0.0000   0.0000   0.0000   0.0000   0.0000   0.0000   0.0000
     0.0000   0.0000   0.0000   0.0000   0.0000   0.0000   0.0000   0.0000
     0.0000   0.0000   0.0000   0.0000   0.0000   0.0000   0.0000   0.0000
     0.0000   0.0000   0.0000   0.0000   0.0000   0.0000   0.0000   0.0000
     0.0000   0.0000   0.0000   0.0000   0.0000   0.0000

          k = 0.2500 0.4330 0.2273 ( 26072 PWs)   bands (ev):

   -16.7386 -16.5891 -16.5354 -16.5083 -16.4180 -16.3928 -16.3873 -16.3161
   -16.1200 -16.0340 -15.9795 -15.9480 -15.8852 -15.7911 -15.7461 -15.6669
   -15.4182 -15.3468 -15.3101 -15.2954 -15.2428 -15.2064 -15.1692 -14.9969
   -14.8714 -14.7892 -14.7814 -14.7719 -14.7676 -14.7586 -14.7533 -14.7467
   -14.7414 -14.7340 -14.7244 -14.7191 -14.7162 -14.7072 -14.7059 -14.6987
   -14.6950 -14.6913 -14.6860 -14.6756 -14.6715 -14.6553 -14.6465 -14.5130
    -6.4516  -6.1197  -6.0338  -5.9936  -5.9371  -5.9158  -5.8756  -5.7527
    -5.1920  -5.0157  -4.9811  -4.8479  -4.7640  -4.6258  -4.5500  -4.3657
    -3.9207  -3.8229  -3.8125  -3.6822  -3.6478  -3.4432  -3.4236  -3.2247
    -3.0056  -2.9623  -2.9526  -2.9332  -2.9113  -2.8971  -2.8776  -2.8563
    -2.8271  -2.7986  -2.7661  -2.7532  -2.7163  -2.6546  -2.5646  -2.5381
    -2.5255  -2.4729  -2.4412  -2.4119  -2.3391  -2.3209  -2.2453  -2.1945
    -0.7998  -0.7771  -0.7712  -0.7153  -0.7029  -0.6923  -0.6845  -0.6560
    -0.6384  -0.5924  -0.5076  -0.4381  -0.3727  -0.3501  -0.3417  -0.3201
    -0.2626  -0.2235  -0.1877  -0.1448  -0.1052  -0.0681  -0.0292  -0.0043
     0.0282   0.0726   0.1543   0.1789   0.1931   0.2044   0.2282   0.2737
     0.4008   0.4148   0.4404   0.4507   0.4709   0.4841   0.4942   0.5135
     0.7188   0.7822   0.7919   0.8270   0.8464   0.8588   0.8639   0.8819
     0.9394   0.9601   0.9837   1.0026   1.0323   1.0525   1.0723   1.1468
     1.1820   1.2261   1.2428   1.2660   1.2826   1.2931   1.3223   1.3674
     1.3956   1.4259   1.4537   1.4751   1.4863   1.5080   1.5252   1.5437
     1.6325   1.7039   1.7220   1.7404   1.7481   1.7558   1.7751   1.8690
     1.9054   1.9967   2.0805   2.0899   2.1174   2.1245   2.1655   2.1801
     2.2364   2.2460   2.2730   2.3418   2.3784   2.3984   2.4209   2.4259
     9.0346   9.7488   9.9266  10.0203  10.4648  10.5124  10.7240  10.9623
    11.1145  11.2931  11.3023  11.4343  11.4436  11.4945  11.5138  11.5276
    11.6030  11.7091  11.7179  11.7321  11.7734  11.8646  11.9053  11.9170
    11.9280  11.9915  12.0444  12.0506  12.1458  12.1888  12.1983  12.2453
    12.3713  12.4202  12.4605  12.4862  12.6189  12.6422

     occupation numbers 
     1.0000   1.0000   1.0000   1.0000   1.0000   1.0000   1.0000   1.0000
     1.0000   1.0000   1.0000   1.0000   1.0000   1.0000   1.0000   1.0000
     1.0000   1.0000   1.0000   1.0000   1.0000   1.0000   1.0000   1.0000
     1.0000   1.0000   1.0000   1.0000   1.0000   1.0000   1.0000   1.0000
     1.0000   1.0000   1.0000   1.0000   1.0000   1.0000   1.0000   1.0000
     1.0000   1.0000   1.0000   1.0000   1.0000   1.0000   1.0000   1.0000
     1.0000   1.0000   1.0000   1.0000   1.0000   1.0000   1.0000   1.0000
     1.0000   1.0000   1.0000   1.0000   1.0000   1.0000   1.0000   1.0000
     1.0000   1.0000   1.0000   1.0000   1.0000   1.0000   1.0000   1.0000
     1.0000   1.0000   1.0000   1.0000   1.0000   1.0000   1.0000   1.0000
     1.0000   1.0000   1.0000   1.0000   1.0000   1.0000   1.0000   1.0000
     1.0000   1.0000   1.0000   1.0000   1.0000   1.0000   1.0000   1.0000
     1.0000   1.0000   1.0000   1.0000   1.0000   1.0000   1.0000   1.0000
     1.0000   1.0000   1.0000   1.0000   1.0000   1.0000   1.0000   1.0000
     1.0000   1.0000   1.0000   1.0000   1.0000   1.0000   1.0000   1.0000
     1.0000   1.0000   1.0000   1.0000   1.0000   1.0000   1.0000   1.0000
     1.0000   1.0000   1.0000   1.0000   1.0000   1.0000   1.0000   1.0000
     1.0000   1.0000   1.0000   1.0000   1.0000   1.0000   1.0000   1.0000
     1.0000   1.0000   1.0000   1.0000   1.0000   1.0000   1.0000   1.0000
     1.0000   1.0000   1.0000   1.0000   1.0000   1.0000   1.0000   1.0000
     1.0000   1.0000   1.0000   1.0000   1.0000   1.0000   1.0000   1.0000
     1.0000   1.0000   1.0000   1.0000   1.0000   1.0000   1.0000   1.0000
     1.0000   1.0000   1.0000   1.0000   1.0000   1.0000   1.0000   1.0000
     1.0000   1.0000   1.0000   1.0000   1.0000   1.0000   1.0000   1.0000
     0.0000   0.0000   0.0000   0.0000   0.0000   0.0000   0.0000   0.0000
     0.0000   0.0000   0.0000   0.0000   0.0000   0.0000   0.0000   0.0000
     0.0000   0.0000   0.0000   0.0000   0.0000   0.0000   0.0000   0.0000
     0.0000   0.0000   0.0000   0.0000   0.0000   0.0000   0.0000   0.0000
     0.0000   0.0000   0.0000   0.0000   0.0000   0.0000

          k =-0.2500-0.1443 0.2273 ( 26067 PWs)   bands (ev):

   -16.8274 -16.6000 -16.5709 -16.4337 -16.4057 -16.3245 -16.3025 -16.2583
   -16.1615 -16.0315 -16.0175 -15.9203 -15.8953 -15.8297 -15.7534 -15.6351
   -15.5189 -15.4233 -15.3573 -15.3102 -15.2765 -15.1858 -15.1375 -14.9068
   -14.8271 -14.7918 -14.7856 -14.7748 -14.7702 -14.7600 -14.7516 -14.7460
   -14.7400 -14.7364 -14.7248 -14.7213 -14.7166 -14.7119 -14.7059 -14.6986
   -14.6953 -14.6871 -14.6795 -14.6761 -14.6664 -14.6597 -14.6410 -14.5087
    -6.6549  -6.1340  -6.1010  -5.9393  -5.9051  -5.8927  -5.7729  -5.5482
    -5.2415  -5.0258  -4.8883  -4.8222  -4.7618  -4.5542  -4.5391  -4.2774
    -4.0435  -3.9849  -3.9008  -3.8146  -3.6350  -3.5431  -3.4272  -3.1158
    -3.0517  -2.9801  -2.9592  -2.9306  -2.9221  -2.9003  -2.8854  -2.8596
    -2.8142  -2.7914  -2.7645  -2.7582  -2.7095  -2.6544  -2.5969  -2.5356
    -2.5159  -2.4772  -2.4560  -2.3822  -2.3440  -2.2667  -2.1975  -2.1175
    -0.8240  -0.7901  -0.7537  -0.7457  -0.7053  -0.6572  -0.6347  -0.6192
    -0.5505  -0.5218  -0.4973  -0.4546  -0.4330  -0.3795  -0.3721  -0.3454
    -0.2514  -0.2440  -0.2044  -0.1807  -0.1629  -0.1436  -0.0760  -0.0309
     0.1130   0.1531   0.1761   0.2134   0.2450   0.2655   0.3320   0.3857
     0.4021   0.4076   0.4325   0.4483   0.4634   0.4788   0.5170   0.6000
     0.6237   0.7261   0.7477   0.7755   0.8060   0.8268   0.8416   0.9006
     0.9112   0.9252   0.9371   0.9557   1.0089   1.0311   1.0923   1.1615
     1.1819   1.2338   1.2605   1.2728   1.2954   1.3047   1.3248   1.3529
     1.3691   1.3929   1.4706   1.4841   1.4933   1.5165   1.5216   1.5622
     1.6453   1.6678   1.6980   1.7271   1.7515   1.8054   1.8527   1.8907
     1.9308   1.9812   2.0385   2.0730   2.1035   2.1391   2.1684   2.1754
     2.2305   2.2646   2.3004   2.3219   2.3689   2.4001   2.4087   2.4216
     8.6083   9.6102   9.7465  10.4073  10.5169  10.9598  10.9827  11.0063
    11.2266  11.3589  11.3689  11.4262  11.4436  11.4725  11.5105  11.5948
    11.6153  11.6879  11.6969  11.7184  11.7374  11.7484  11.8054  11.8670
    11.8950  11.9570  12.1681  12.1834  12.2121  12.2267  12.2811  12.3585
    12.3847  12.4005  12.4092  12.4196  12.4792  12.4920

     occupation numbers 
     1.0000   1.0000   1.0000   1.0000   1.0000   1.0000   1.0000   1.0000
     1.0000   1.0000   1.0000   1.0000   1.0000   1.0000   1.0000   1.0000
     1.0000   1.0000   1.0000   1.0000   1.0000   1.0000   1.0000   1.0000
     1.0000   1.0000   1.0000   1.0000   1.0000   1.0000   1.0000   1.0000
     1.0000   1.0000   1.0000   1.0000   1.0000   1.0000   1.0000   1.0000
     1.0000   1.0000   1.0000   1.0000   1.0000   1.0000   1.0000   1.0000
     1.0000   1.0000   1.0000   1.0000   1.0000   1.0000   1.0000   1.0000
     1.0000   1.0000   1.0000   1.0000   1.0000   1.0000   1.0000   1.0000
     1.0000   1.0000   1.0000   1.0000   1.0000   1.0000   1.0000   1.0000
     1.0000   1.0000   1.0000   1.0000   1.0000   1.0000   1.0000   1.0000
     1.0000   1.0000   1.0000   1.0000   1.0000   1.0000   1.0000   1.0000
     1.0000   1.0000   1.0000   1.0000   1.0000   1.0000   1.0000   1.0000
     1.0000   1.0000   1.0000   1.0000   1.0000   1.0000   1.0000   1.0000
     1.0000   1.0000   1.0000   1.0000   1.0000   1.0000   1.0000   1.0000
     1.0000   1.0000   1.0000   1.0000   1.0000   1.0000   1.0000   1.0000
     1.0000   1.0000   1.0000   1.0000   1.0000   1.0000   1.0000   1.0000
     1.0000   1.0000   1.0000   1.0000   1.0000   1.0000   1.0000   1.0000
     1.0000   1.0000   1.0000   1.0000   1.0000   1.0000   1.0000   1.0000
     1.0000   1.0000   1.0000   1.0000   1.0000   1.0000   1.0000   1.0000
     1.0000   1.0000   1.0000   1.0000   1.0000   1.0000   1.0000   1.0000
     1.0000   1.0000   1.0000   1.0000   1.0000   1.0000   1.0000   1.0000
     1.0000   1.0000   1.0000   1.0000   1.0000   1.0000   1.0000   1.0000
     1.0000   1.0000   1.0000   1.0000   1.0000   1.0000   1.0000   1.0000
     1.0000   1.0000   1.0000   1.0000   1.0000   1.0000   1.0000   1.0000
     0.1452   0.0000   0.0000   0.0000   0.0000   0.0000   0.0000   0.0000
     0.0000   0.0000   0.0000   0.0000   0.0000   0.0000   0.0000   0.0000
     0.0000   0.0000   0.0000   0.0000   0.0000   0.0000   0.0000   0.0000
     0.0000   0.0000   0.0000   0.0000   0.0000   0.0000   0.0000   0.0000
     0.0000   0.0000   0.0000   0.0000   0.0000   0.0000

          k =-0.2500 0.1443-0.2273 ( 26067 PWs)   bands (ev):

   -16.8284 -16.6000 -16.5693 -16.4201 -16.4049 -16.3275 -16.3155 -16.2682
   -16.1592 -16.0323 -16.0055 -15.9210 -15.9028 -15.8206 -15.7552 -15.6377
   -15.5011 -15.4339 -15.3509 -15.3146 -15.2917 -15.1943 -15.1274 -14.8969
   -14.8299 -14.7954 -14.7869 -14.7736 -14.7657 -14.7617 -14.7528 -14.7455
   -14.7412 -14.7355 -14.7276 -14.7220 -14.7148 -14.7105 -14.7034 -14.6990
   -14.6959 -14.6879 -14.6806 -14.6727 -14.6661 -14.6590 -14.6424 -14.5109
    -6.6560  -6.1367  -6.0974  -5.9361  -5.9033  -5.8916  -5.7675  -5.5662
    -5.2336  -5.0427  -4.8650  -4.8245  -4.7711  -4.5525  -4.5289  -4.2812
    -4.0449  -3.9853  -3.8994  -3.8286  -3.6332  -3.5307  -3.4257  -3.1202
    -3.0463  -2.9980  -2.9550  -2.9358  -2.9223  -2.8970  -2.8861  -2.8581
    -2.8115  -2.7870  -2.7638  -2.7509  -2.7104  -2.6518  -2.6010  -2.5351
    -2.5257  -2.4697  -2.4497  -2.3864  -2.3534  -2.2655  -2.1949  -2.1164
    -0.8222  -0.7926  -0.7543  -0.7436  -0.7069  -0.6479  -0.6371  -0.6218
    -0.5523  -0.5243  -0.4991  -0.4567  -0.4346  -0.3813  -0.3675  -0.3483
    -0.2530  -0.2426  -0.1998  -0.1816  -0.1643  -0.1477  -0.0726  -0.0281
     0.1097   0.1530   0.1804   0.2218   0.2528   0.2712   0.3325   0.3813
     0.3958   0.4115   0.4297   0.4486   0.4635   0.4729   0.5166   0.5913
     0.6319   0.7108   0.7504   0.7766   0.7979   0.8361   0.8439   0.9004
     0.9146   0.9235   0.9421   0.9553   1.0084   1.0325   1.0791   1.1684
     1.1868   1.2239   1.2554   1.2691   1.2937   1.3149   1.3312   1.3490
     1.3716   1.3881   1.4757   1.4840   1.4969   1.5143   1.5306   1.5524
     1.6567   1.6656   1.7014   1.7244   1.7487   1.8084   1.8466   1.8992
     1.9268   1.9794   2.0348   2.0760   2.0967   2.1256   2.1701   2.1745
     2.2359   2.2686   2.3060   2.3261   2.3768   2.3941   2.4088   2.4156
     8.6082   9.6100   9.7468  10.4093  10.5162  10.9587  10.9842  11.0064
    11.2208  11.3549  11.3760  11.4265  11.4493  11.4752  11.5115  11.5876
    11.6168  11.6832  11.6945  11.7118  11.7367  11.7508  11.7966  11.8736
    11.8946  11.9627  12.1763  12.1826  12.2115  12.2341  12.2775  12.3521
    12.3882  12.3943  12.4109  12.4137  12.4834  12.4963

     occupation numbers 
     1.0000   1.0000   1.0000   1.0000   1.0000   1.0000   1.0000   1.0000
     1.0000   1.0000   1.0000   1.0000   1.0000   1.0000   1.0000   1.0000
     1.0000   1.0000   1.0000   1.0000   1.0000   1.0000   1.0000   1.0000
     1.0000   1.0000   1.0000   1.0000   1.0000   1.0000   1.0000   1.0000
     1.0000   1.0000   1.0000   1.0000   1.0000   1.0000   1.0000   1.0000
     1.0000   1.0000   1.0000   1.0000   1.0000   1.0000   1.0000   1.0000
     1.0000   1.0000   1.0000   1.0000   1.0000   1.0000   1.0000   1.0000
     1.0000   1.0000   1.0000   1.0000   1.0000   1.0000   1.0000   1.0000
     1.0000   1.0000   1.0000   1.0000   1.0000   1.0000   1.0000   1.0000
     1.0000   1.0000   1.0000   1.0000   1.0000   1.0000   1.0000   1.0000
     1.0000   1.0000   1.0000   1.0000   1.0000   1.0000   1.0000   1.0000
     1.0000   1.0000   1.0000   1.0000   1.0000   1.0000   1.0000   1.0000
     1.0000   1.0000   1.0000   1.0000   1.0000   1.0000   1.0000   1.0000
     1.0000   1.0000   1.0000   1.0000   1.0000   1.0000   1.0000   1.0000
     1.0000   1.0000   1.0000   1.0000   1.0000   1.0000   1.0000   1.0000
     1.0000   1.0000   1.0000   1.0000   1.0000   1.0000   1.0000   1.0000
     1.0000   1.0000   1.0000   1.0000   1.0000   1.0000   1.0000   1.0000
     1.0000   1.0000   1.0000   1.0000   1.0000   1.0000   1.0000   1.0000
     1.0000   1.0000   1.0000   1.0000   1.0000   1.0000   1.0000   1.0000
     1.0000   1.0000   1.0000   1.0000   1.0000   1.0000   1.0000   1.0000
     1.0000   1.0000   1.0000   1.0000   1.0000   1.0000   1.0000   1.0000
     1.0000   1.0000   1.0000   1.0000   1.0000   1.0000   1.0000   1.0000
     1.0000   1.0000   1.0000   1.0000   1.0000   1.0000   1.0000   1.0000
     1.0000   1.0000   1.0000   1.0000   1.0000   1.0000   1.0000   1.0000
     0.1455   0.0000   0.0000   0.0000   0.0000   0.0000   0.0000   0.0000
     0.0000   0.0000   0.0000   0.0000   0.0000   0.0000   0.0000   0.0000
     0.0000   0.0000   0.0000   0.0000   0.0000   0.0000   0.0000   0.0000
     0.0000   0.0000   0.0000   0.0000   0.0000   0.0000   0.0000   0.0000
     0.0000   0.0000   0.0000   0.0000   0.0000   0.0000

          k = 0.2500-0.1443-0.2273 ( 26067 PWs)   bands (ev):

   -16.8287 -16.5994 -16.5689 -16.4185 -16.4099 -16.3225 -16.3142 -16.2691
   -16.1597 -16.0357 -16.0080 -15.9219 -15.9059 -15.8193 -15.7485 -15.6348
   -15.5044 -15.4179 -15.3504 -15.3238 -15.3042 -15.1862 -15.1353 -14.8957
   -14.8214 -14.7955 -14.7901 -14.7732 -14.7680 -14.7606 -14.7509 -14.7480
   -14.7391 -14.7367 -14.7278 -14.7186 -14.7118 -14.7093 -14.7041 -14.7005
   -14.6954 -14.6896 -14.6823 -14.6737 -14.6654 -14.6600 -14.6430 -14.5117
    -6.6559  -6.1365  -6.0947  -5.9336  -5.9077  -5.8928  -5.7684  -5.5639
    -5.2397  -5.0376  -4.8730  -4.8246  -4.7672  -4.5542  -4.5246  -4.2704
    -4.0371  -3.9906  -3.9010  -3.8300  -3.6340  -3.5499  -3.4368  -3.1184
    -3.0556  -2.9724  -2.9532  -2.9345  -2.9192  -2.8966  -2.8769  -2.8505
    -2.8243  -2.8040  -2.7572  -2.7460  -2.7077  -2.6504  -2.5783  -2.5385
    -2.5244  -2.4807  -2.4602  -2.4086  -2.3354  -2.2761  -2.1857  -2.1156
    -0.8232  -0.8031  -0.7686  -0.7080  -0.6672  -0.6290  -0.6227  -0.6064
    -0.5554  -0.5127  -0.4964  -0.4759  -0.4500  -0.3953  -0.3721  -0.3459
    -0.2735  -0.2425  -0.2048  -0.1926  -0.1755  -0.1666  -0.0663  -0.0375
     0.0690   0.1331   0.1499   0.1640   0.2616   0.2785   0.3265   0.3933
     0.4224   0.4343   0.4554   0.4853   0.5084   0.5180   0.5296   0.5914
     0.6256   0.6883   0.7076   0.7316   0.7842   0.8242   0.8545   0.8628
     0.9034   0.9374   0.9970   1.0204   1.0307   1.0461   1.0832   1.1621
     1.1741   1.2257   1.2319   1.2452   1.2723   1.3060   1.3237   1.3347
     1.3525   1.3853   1.4323   1.4632   1.4842   1.5260   1.5460   1.5565
     1.6751   1.7194   1.7434   1.7533   1.7994   1.8175   1.8540   1.9208
     1.9369   1.9879   2.0655   2.0696   2.0959   2.1078   2.1169   2.1216
     2.2214   2.2451   2.2729   2.3394   2.3479   2.4068   2.4222   2.4400
     8.6043   9.6237   9.7384  10.4648  10.5249  10.9470  10.9751  11.0507
    11.1905  11.3216  11.3493  11.3737  11.3928  11.4596  11.4984  11.5170
    11.5949  11.6638  11.7173  11.7391  11.7519  11.7976  11.9225  11.9336
    11.9574  11.9773  12.0619  12.0870  12.1804  12.1968  12.2637  12.2865
    12.3857  12.3963  12.4815  12.5360  12.5716  12.6556

     occupation numbers 
     1.0000   1.0000   1.0000   1.0000   1.0000   1.0000   1.0000   1.0000
     1.0000   1.0000   1.0000   1.0000   1.0000   1.0000   1.0000   1.0000
     1.0000   1.0000   1.0000   1.0000   1.0000   1.0000   1.0000   1.0000
     1.0000   1.0000   1.0000   1.0000   1.0000   1.0000   1.0000   1.0000
     1.0000   1.0000   1.0000   1.0000   1.0000   1.0000   1.0000   1.0000
     1.0000   1.0000   1.0000   1.0000   1.0000   1.0000   1.0000   1.0000
     1.0000   1.0000   1.0000   1.0000   1.0000   1.0000   1.0000   1.0000
     1.0000   1.0000   1.0000   1.0000   1.0000   1.0000   1.0000   1.0000
     1.0000   1.0000   1.0000   1.0000   1.0000   1.0000   1.0000   1.0000
     1.0000   1.0000   1.0000   1.0000   1.0000   1.0000   1.0000   1.0000
     1.0000   1.0000   1.0000   1.0000   1.0000   1.0000   1.0000   1.0000
     1.0000   1.0000   1.0000   1.0000   1.0000   1.0000   1.0000   1.0000
     1.0000   1.0000   1.0000   1.0000   1.0000   1.0000   1.0000   1.0000
     1.0000   1.0000   1.0000   1.0000   1.0000   1.0000   1.0000   1.0000
     1.0000   1.0000   1.0000   1.0000   1.0000   1.0000   1.0000   1.0000
     1.0000   1.0000   1.0000   1.0000   1.0000   1.0000   1.0000   1.0000
     1.0000   1.0000   1.0000   1.0000   1.0000   1.0000   1.0000   1.0000
     1.0000   1.0000   1.0000   1.0000   1.0000   1.0000   1.0000   1.0000
     1.0000   1.0000   1.0000   1.0000   1.0000   1.0000   1.0000   1.0000
     1.0000   1.0000   1.0000   1.0000   1.0000   1.0000   1.0000   1.0000
     1.0000   1.0000   1.0000   1.0000   1.0000   1.0000   1.0000   1.0000
     1.0000   1.0000   1.0000   1.0000   1.0000   1.0000   1.0000   1.0000
     1.0000   1.0000   1.0000   1.0000   1.0000   1.0000   1.0000   1.0000
     1.0000   1.0000   1.0000   1.0000   1.0000   1.0000   1.0000   1.0000
     0.1550   0.0000   0.0000   0.0000   0.0000   0.0000   0.0000   0.0000
     0.0000   0.0000   0.0000   0.0000   0.0000   0.0000   0.0000   0.0000
     0.0000   0.0000   0.0000   0.0000   0.0000   0.0000   0.0000   0.0000
     0.0000   0.0000   0.0000   0.0000   0.0000   0.0000   0.0000   0.0000
     0.0000   0.0000   0.0000   0.0000   0.0000   0.0000

          k =-0.2500-0.4330 0.2273 ( 26072 PWs)   bands (ev):

   -16.7394 -16.5876 -16.5323 -16.5053 -16.4225 -16.3975 -16.3901 -16.3152
   -16.1258 -16.0207 -15.9640 -15.9476 -15.8863 -15.8104 -15.7574 -15.6596
   -15.4164 -15.3487 -15.2884 -15.2765 -15.2658 -15.2207 -15.1735 -14.9859
   -14.8769 -14.7858 -14.7840 -14.7689 -14.7665 -14.7610 -14.7553 -14.7440
   -14.7381 -14.7340 -14.7299 -14.7195 -14.7158 -14.7108 -14.7085 -14.7003
   -14.6918 -14.6886 -14.6854 -14.6753 -14.6714 -14.6540 -14.6476 -14.5129
    -6.4520  -6.1220  -6.0343  -5.9937  -5.9339  -5.9104  -5.8820  -5.7500
    -5.1900  -5.0206  -4.9758  -4.8477  -4.7612  -4.6431  -4.5392  -4.3724
    -3.9273  -3.8254  -3.8016  -3.6791  -3.6393  -3.4324  -3.4256  -3.2303
    -2.9950  -2.9569  -2.9410  -2.9309  -2.9161  -2.9051  -2.8947  -2.8440
    -2.8372  -2.8237  -2.7610  -2.7485  -2.7313  -2.6384  -2.5887  -2.5347
    -2.5189  -2.4933  -2.4022  -2.3900  -2.3520  -2.3183  -2.2728  -2.1794
    -0.8062  -0.7751  -0.7687  -0.7469  -0.7253  -0.7049  -0.6597  -0.6410
    -0.6260  -0.6187  -0.5229  -0.4764  -0.3755  -0.3615  -0.3390  -0.3226
    -0.2768  -0.1543  -0.1389  -0.1360  -0.0992  -0.0666  -0.0267   0.0397
     0.1081   0.1217   0.1330   0.1641   0.1773   0.1871   0.1992   0.2791
     0.3865   0.4029   0.4224   0.4327   0.4571   0.4686   0.5033   0.5154
     0.6932   0.7407   0.7739   0.8211   0.8392   0.8631   0.9114   0.9291
     0.9441   0.9592   0.9720   0.9794   0.9992   1.0776   1.1132   1.1513
     1.1743   1.2263   1.2426   1.2730   1.2967   1.3091   1.3406   1.3565
     1.3913   1.4427   1.4785   1.4942   1.5122   1.5281   1.5435   1.5555
     1.6114   1.6235   1.6411   1.6579   1.6803   1.7610   1.8162   1.8609
     1.9181   1.9688   2.0318   2.1057   2.1297   2.1751   2.1841   2.2212
     2.2312   2.3082   2.3272   2.3408   2.3528   2.3769   2.3897   2.4240
     9.0380   9.7509   9.9177  10.0365  10.4291  10.5073  10.6003  11.0492
    11.1224  11.3668  11.4344  11.4482  11.4749  11.4951  11.5143  11.5294
    11.6025  11.6526  11.6996  11.7368  11.7425  11.8036  11.8373  11.8587
    11.9677  11.9858  12.0878  12.1596  12.1919  12.2275  12.2334  12.2439
    12.3508  12.3789  12.4047  12.4745  12.4942  12.5893

     occupation numbers 
     1.0000   1.0000   1.0000   1.0000   1.0000   1.0000   1.0000   1.0000
     1.0000   1.0000   1.0000   1.0000   1.0000   1.0000   1.0000   1.0000
     1.0000   1.0000   1.0000   1.0000   1.0000   1.0000   1.0000   1.0000
     1.0000   1.0000   1.0000   1.0000   1.0000   1.0000   1.0000   1.0000
     1.0000   1.0000   1.0000   1.0000   1.0000   1.0000   1.0000   1.0000
     1.0000   1.0000   1.0000   1.0000   1.0000   1.0000   1.0000   1.0000
     1.0000   1.0000   1.0000   1.0000   1.0000   1.0000   1.0000   1.0000
     1.0000   1.0000   1.0000   1.0000   1.0000   1.0000   1.0000   1.0000
     1.0000   1.0000   1.0000   1.0000   1.0000   1.0000   1.0000   1.0000
     1.0000   1.0000   1.0000   1.0000   1.0000   1.0000   1.0000   1.0000
     1.0000   1.0000   1.0000   1.0000   1.0000   1.0000   1.0000   1.0000
     1.0000   1.0000   1.0000   1.0000   1.0000   1.0000   1.0000   1.0000
     1.0000   1.0000   1.0000   1.0000   1.0000   1.0000   1.0000   1.0000
     1.0000   1.0000   1.0000   1.0000   1.0000   1.0000   1.0000   1.0000
     1.0000   1.0000   1.0000   1.0000   1.0000   1.0000   1.0000   1.0000
     1.0000   1.0000   1.0000   1.0000   1.0000   1.0000   1.0000   1.0000
     1.0000   1.0000   1.0000   1.0000   1.0000   1.0000   1.0000   1.0000
     1.0000   1.0000   1.0000   1.0000   1.0000   1.0000   1.0000   1.0000
     1.0000   1.0000   1.0000   1.0000   1.0000   1.0000   1.0000   1.0000
     1.0000   1.0000   1.0000   1.0000   1.0000   1.0000   1.0000   1.0000
     1.0000   1.0000   1.0000   1.0000   1.0000   1.0000   1.0000   1.0000
     1.0000   1.0000   1.0000   1.0000   1.0000   1.0000   1.0000   1.0000
     1.0000   1.0000   1.0000   1.0000   1.0000   1.0000   1.0000   1.0000
     1.0000   1.0000   1.0000   1.0000   1.0000   1.0000   1.0000   1.0000
     0.0000   0.0000   0.0000   0.0000   0.0000   0.0000   0.0000   0.0000
     0.0000   0.0000   0.0000   0.0000   0.0000   0.0000   0.0000   0.0000
     0.0000   0.0000   0.0000   0.0000   0.0000   0.0000   0.0000   0.0000
     0.0000   0.0000   0.0000   0.0000   0.0000   0.0000   0.0000   0.0000
     0.0000   0.0000   0.0000   0.0000   0.0000   0.0000

          k =-0.2500 0.4330-0.2273 ( 26072 PWs)   bands (ev):

   -16.7431 -16.5774 -16.5337 -16.5016 -16.4280 -16.4044 -16.3719 -16.3375
   -16.1168 -16.0260 -15.9904 -15.9234 -15.8621 -15.8197 -15.7659 -15.6620
   -15.3824 -15.3358 -15.3150 -15.2951 -15.2824 -15.2145 -15.1793 -14.9570
   -14.8874 -14.7954 -14.7734 -14.7683 -14.7673 -14.7610 -14.7538 -14.7468
   -14.7382 -14.7337 -14.7311 -14.7246 -14.7151 -14.7098 -14.7041 -14.6967
   -14.6939 -14.6901 -14.6851 -14.6754 -14.6691 -14.6550 -14.6489 -14.5142
    -6.4557  -6.1144  -6.0424  -5.9792  -5.9314  -5.9115  -5.8729  -5.7756
    -5.1759  -5.0292  -5.0054  -4.8244  -4.7333  -4.6530  -4.5494  -4.3745
    -3.9200  -3.8307  -3.8167  -3.6689  -3.6316  -3.4349  -3.4268  -3.2368
    -2.9897  -2.9548  -2.9422  -2.9302  -2.9194  -2.8969  -2.8820  -2.8591
    -2.8373  -2.8277  -2.7646  -2.7497  -2.7210  -2.6428  -2.5895  -2.5426
    -2.5092  -2.4904  -2.4030  -2.3939  -2.3485  -2.3148  -2.2904  -2.1693
    -0.8054  -0.7812  -0.7624  -0.7450  -0.7312  -0.6958  -0.6620  -0.6404
    -0.6273  -0.6240  -0.5218  -0.4699  -0.3782  -0.3708  -0.3452  -0.3199
    -0.2663  -0.1541  -0.1484  -0.1314  -0.1047  -0.0601  -0.0246   0.0290
     0.1155   0.1263   0.1346   0.1693   0.1797   0.1914   0.2022   0.2699
     0.3856   0.4093   0.4159   0.4374   0.4484   0.4647   0.4949   0.5175
     0.6920   0.7611   0.7753   0.8209   0.8497   0.8680   0.9035   0.9195
     0.9434   0.9488   0.9673   0.9853   1.0019   1.0784   1.1005   1.1538
     1.1807   1.2271   1.2393   1.2676   1.3009   1.3107   1.3370   1.3465
     1.3916   1.4436   1.4839   1.4877   1.5141   1.5282   1.5400   1.5539
     1.6202   1.6297   1.6439   1.6611   1.6925   1.7651   1.8074   1.8590
     1.9108   1.9700   2.0433   2.1037   2.1268   2.1728   2.1802   2.2078
     2.2220   2.3129   2.3352   2.3377   2.3634   2.3825   2.3968   2.4112
     9.0376   9.7514   9.9165  10.0384  10.4313  10.5040  10.6064  11.0390
    11.1203  11.3700  11.4327  11.4482  11.4785  11.4964  11.5172  11.5268
    11.5980  11.6512  11.6967  11.7326  11.7481  11.8083  11.8314  11.8492
    11.9757  11.9929  12.0911  12.1603  12.1961  12.2232  12.2407  12.2535
    12.3521  12.3712  12.3975  12.4760  12.4903  12.5911

     occupation numbers 
     1.0000   1.0000   1.0000   1.0000   1.0000   1.0000   1.0000   1.0000
     1.0000   1.0000   1.0000   1.0000   1.0000   1.0000   1.0000   1.0000
     1.0000   1.0000   1.0000   1.0000   1.0000   1.0000   1.0000   1.0000
     1.0000   1.0000   1.0000   1.0000   1.0000   1.0000   1.0000   1.0000
     1.0000   1.0000   1.0000   1.0000   1.0000   1.0000   1.0000   1.0000
     1.0000   1.0000   1.0000   1.0000   1.0000   1.0000   1.0000   1.0000
     1.0000   1.0000   1.0000   1.0000   1.0000   1.0000   1.0000   1.0000
     1.0000   1.0000   1.0000   1.0000   1.0000   1.0000   1.0000   1.0000
     1.0000   1.0000   1.0000   1.0000   1.0000   1.0000   1.0000   1.0000
     1.0000   1.0000   1.0000   1.0000   1.0000   1.0000   1.0000   1.0000
     1.0000   1.0000   1.0000   1.0000   1.0000   1.0000   1.0000   1.0000
     1.0000   1.0000   1.0000   1.0000   1.0000   1.0000   1.0000   1.0000
     1.0000   1.0000   1.0000   1.0000   1.0000   1.0000   1.0000   1.0000
     1.0000   1.0000   1.0000   1.0000   1.0000   1.0000   1.0000   1.0000
     1.0000   1.0000   1.0000   1.0000   1.0000   1.0000   1.0000   1.0000
     1.0000   1.0000   1.0000   1.0000   1.0000   1.0000   1.0000   1.0000
     1.0000   1.0000   1.0000   1.0000   1.0000   1.0000   1.0000   1.0000
     1.0000   1.0000   1.0000   1.0000   1.0000   1.0000   1.0000   1.0000
     1.0000   1.0000   1.0000   1.0000   1.0000   1.0000   1.0000   1.0000
     1.0000   1.0000   1.0000   1.0000   1.0000   1.0000   1.0000   1.0000
     1.0000   1.0000   1.0000   1.0000   1.0000   1.0000   1.0000   1.0000
     1.0000   1.0000   1.0000   1.0000   1.0000   1.0000   1.0000   1.0000
     1.0000   1.0000   1.0000   1.0000   1.0000   1.0000   1.0000   1.0000
     1.0000   1.0000   1.0000   1.0000   1.0000   1.0000   1.0000   1.0000
     0.0000   0.0000   0.0000   0.0000   0.0000   0.0000   0.0000   0.0000
     0.0000   0.0000   0.0000   0.0000   0.0000   0.0000   0.0000   0.0000
     0.0000   0.0000   0.0000   0.0000   0.0000   0.0000   0.0000   0.0000
     0.0000   0.0000   0.0000   0.0000   0.0000   0.0000   0.0000   0.0000
     0.0000   0.0000   0.0000   0.0000   0.0000   0.0000

          k = 0.2500-0.4330-0.2273 ( 26072 PWs)   bands (ev):

   -16.7431 -16.5794 -16.5345 -16.5027 -16.4256 -16.4002 -16.3694 -16.3368
   -16.1157 -16.0449 -15.9981 -15.9228 -15.8605 -15.8064 -15.7486 -15.6643
   -15.3949 -15.3391 -15.3200 -15.3100 -15.2704 -15.1993 -15.1817 -14.9600
   -14.8831 -14.7938 -14.7796 -14.7723 -14.7641 -14.7626 -14.7508 -14.7462
   -14.7391 -14.7312 -14.7257 -14.7222 -14.7144 -14.7113 -14.7062 -14.6980
   -14.6942 -14.6901 -14.6854 -14.6756 -14.6699 -14.6563 -14.6485 -14.5147
    -6.4560  -6.1140  -6.0417  -5.9774  -5.9288  -5.9110  -5.8784  -5.7745
    -5.1845  -5.0319  -4.9999  -4.8204  -4.7414  -4.6489  -4.5531  -4.3568
    -3.9054  -3.8351  -3.8175  -3.6829  -3.6455  -3.4418  -3.4357  -3.2264
    -2.9856  -2.9639  -2.9536  -2.9393  -2.9188  -2.8872  -2.8726  -2.8654
    -2.8214  -2.8021  -2.7625  -2.7426  -2.7254  -2.6472  -2.5737  -2.5513
    -2.5278  -2.4686  -2.4344  -2.4112  -2.3374  -2.3198  -2.2616  -2.1828
    -0.8037  -0.7820  -0.7712  -0.7133  -0.7047  -0.6947  -0.6809  -0.6519
    -0.6360  -0.5879  -0.5105  -0.4317  -0.3779  -0.3598  -0.3412  -0.3185
    -0.2478  -0.2251  -0.1800  -0.1488  -0.1079  -0.0650  -0.0331  -0.0157
     0.0168   0.0781   0.1582   0.1827   0.1979   0.2078   0.2267   0.2618
     0.4019   0.4092   0.4366   0.4553   0.4826   0.4878   0.5012   0.5097
     0.7166   0.7661   0.8083   0.8278   0.8339   0.8523   0.8680   0.8754
     0.9515   0.9650   0.9876   1.0063   1.0322   1.0477   1.0637   1.1421
     1.1956   1.2329   1.2511   1.2653   1.2789   1.2910   1.3194   1.3722
     1.4019   1.4230   1.4428   1.4722   1.4852   1.5089   1.5151   1.5277
     1.6380   1.7095   1.7165   1.7418   1.7520   1.7541   1.7816   1.8776
     1.9009   1.9978   2.0881   2.0948   2.1174   2.1282   2.1614   2.1674
     2.2343   2.2496   2.2755   2.3400   2.3749   2.3862   2.4243   2.4362
     9.0340   9.7492   9.9251  10.0234  10.4672  10.5106  10.7304  10.9499
    11.1186  11.2931  11.2986  11.4315  11.4543  11.4861  11.5167  11.5223
    11.6108  11.7079  11.7187  11.7216  11.7802  11.8544  11.8987  11.9228
    11.9340  12.0016  12.0359  12.0581  12.1341  12.1916  12.1999  12.2486
    12.3650  12.4237  12.4633  12.4767  12.6170  12.6469

     occupation numbers 
     1.0000   1.0000   1.0000   1.0000   1.0000   1.0000   1.0000   1.0000
     1.0000   1.0000   1.0000   1.0000   1.0000   1.0000   1.0000   1.0000
     1.0000   1.0000   1.0000   1.0000   1.0000   1.0000   1.0000   1.0000
     1.0000   1.0000   1.0000   1.0000   1.0000   1.0000   1.0000   1.0000
     1.0000   1.0000   1.0000   1.0000   1.0000   1.0000   1.0000   1.0000
     1.0000   1.0000   1.0000   1.0000   1.0000   1.0000   1.0000   1.0000
     1.0000   1.0000   1.0000   1.0000   1.0000   1.0000   1.0000   1.0000
     1.0000   1.0000   1.0000   1.0000   1.0000   1.0000   1.0000   1.0000
     1.0000   1.0000   1.0000   1.0000   1.0000   1.0000   1.0000   1.0000
     1.0000   1.0000   1.0000   1.0000   1.0000   1.0000   1.0000   1.0000
     1.0000   1.0000   1.0000   1.0000   1.0000   1.0000   1.0000   1.0000
     1.0000   1.0000   1.0000   1.0000   1.0000   1.0000   1.0000   1.0000
     1.0000   1.0000   1.0000   1.0000   1.0000   1.0000   1.0000   1.0000
     1.0000   1.0000   1.0000   1.0000   1.0000   1.0000   1.0000   1.0000
     1.0000   1.0000   1.0000   1.0000   1.0000   1.0000   1.0000   1.0000
     1.0000   1.0000   1.0000   1.0000   1.0000   1.0000   1.0000   1.0000
     1.0000   1.0000   1.0000   1.0000   1.0000   1.0000   1.0000   1.0000
     1.0000   1.0000   1.0000   1.0000   1.0000   1.0000   1.0000   1.0000
     1.0000   1.0000   1.0000   1.0000   1.0000   1.0000   1.0000   1.0000
     1.0000   1.0000   1.0000   1.0000   1.0000   1.0000   1.0000   1.0000
     1.0000   1.0000   1.0000   1.0000   1.0000   1.0000   1.0000   1.0000
     1.0000   1.0000   1.0000   1.0000   1.0000   1.0000   1.0000   1.0000
     1.0000   1.0000   1.0000   1.0000   1.0000   1.0000   1.0000   1.0000
     1.0000   1.0000   1.0000   1.0000   1.0000   1.0000   1.0000   1.0000
     0.0000   0.0000   0.0000   0.0000   0.0000   0.0000   0.0000   0.0000
     0.0000   0.0000   0.0000   0.0000   0.0000   0.0000   0.0000   0.0000
     0.0000   0.0000   0.0000   0.0000   0.0000   0.0000   0.0000   0.0000
     0.0000   0.0000   0.0000   0.0000   0.0000   0.0000   0.0000   0.0000
     0.0000   0.0000   0.0000   0.0000   0.0000   0.0000

     the Fermi energy is     8.5066 ev

!    total energy              =   -1890.65261134 Ry
     estimated scf accuracy    <          9.0E-12 Ry
     smearing contrib. (-TS)   =      -0.00164835 Ry
     internal energy E=F+TS    =   -1890.65096299 Ry

     The total energy is F=E-TS. E is the sum of the following terms:
     one-electron contribution =    -816.52038869 Ry
     hartree contribution      =     617.08994600 Ry
     xc contribution           =    -574.31814001 Ry
     ewald contribution        =   -1116.90238029 Ry

     convergence has been achieved in  15 iterations

     Forces acting on atoms (cartesian axes, Ry/au):

     atom    1 type  1   force =    -0.00471795    0.00146891   -0.09090599
     atom    2 type  1   force =     0.00011767   -0.00006938   -0.00134551
     atom    3 type  1   force =    -0.00000897    0.00197146   -0.00248588
     atom    4 type  1   force =     0.00002039   -0.00106180   -0.00229933
     atom    5 type  2   force =    -0.01039923   -0.01204955    0.01106519
     atom    6 type  2   force =    -0.00035678   -0.00000156    0.00049257
     atom    7 type  2   force =    -0.00121794   -0.00331027    0.00175435
     atom    8 type  2   force =    -0.00034363    0.00000012    0.00066635
     atom    9 type  2   force =     0.02093831    0.01243959    0.03155670
     atom   10 type  2   force =     0.00039930   -0.00015149    0.00072501
     atom   11 type  2   force =     0.00103719    0.00143080    0.00073701
     atom   12 type  2   force =     0.00016478   -0.00030564    0.00071073
     atom   13 type  1   force =     0.00416169    0.00830834    0.00388132
     atom   14 type  1   force =    -0.00085860    0.00047610   -0.00120091
     atom   15 type  1   force =    -0.00243123   -0.00533688    0.00360135
     atom   16 type  1   force =     0.00041981   -0.00018905   -0.00086830
     atom   17 type  2   force =     0.00106566   -0.00073304   -0.00013095
     atom   18 type  2   force =    -0.00191858   -0.00120643   -0.00165349
     atom   19 type  2   force =    -0.00052779    0.00066272   -0.00139069
     atom   20 type  2   force =     0.00019349   -0.00015537   -0.00012251
     atom   21 type  2   force =     0.00109697    0.00057097   -0.00082238
     atom   22 type  2   force =    -0.00048619    0.00054073    0.00005231
     atom   23 type  2   force =     0.00086635   -0.00122201   -0.00178078
     atom   24 type  2   force =    -0.00002858    0.00006944    0.00010521
     atom   25 type  1   force =     0.00102347   -0.00074583    0.00217809
     atom   26 type  1   force =    -0.00098510   -0.00027554    0.00096976
     atom   27 type  1   force =    -0.00155115    0.00042554    0.00219206
     atom   28 type  1   force =     0.00089471    0.00034430    0.00151387
     atom   29 type  2   force =     0.00032952    0.00006930   -0.00157461
     atom   30 type  2   force =     0.00039800    0.00009001   -0.00062908
     atom   31 type  2   force =     0.00065609   -0.00029058   -0.00096662
     atom   32 type  2   force =     0.00025062   -0.00021052   -0.00085463
     atom   33 type  2   force =    -0.00027745    0.00032878   -0.00089921
     atom   34 type  2   force =    -0.00047715    0.00022107   -0.00047957
     atom   35 type  2   force =    -0.00051708    0.00037987   -0.00078265
     atom   36 type  2   force =    -0.00022521    0.00018885   -0.00047145
     atom   37 type  1   force =     0.00008481   -0.00007102    0.00273287
     atom   38 type  1   force =     0.00011634   -0.00026656    0.00105276
     atom   39 type  1   force =     0.00000406   -0.00017031    0.00146424
     atom   40 type  1   force =    -0.00000948    0.00011092    0.00142317
     atom   41 type  2   force =    -0.00018316    0.00045998   -0.00123258
     atom   42 type  2   force =    -0.00000255    0.00032960   -0.00083050
     atom   43 type  2   force =     0.00001318    0.00044440   -0.00094779
     atom   44 type  2   force =    -0.00027870    0.00025599   -0.00064141
     atom   45 type  2   force =    -0.00003451   -0.00035658   -0.00120622
     atom   46 type  2   force =    -0.00010648   -0.00034208   -0.00030827
     atom   47 type  2   force =    -0.00025751   -0.00056655   -0.00064672
     atom   48 type  2   force =     0.00013158   -0.00051906   -0.00055571
     atom   49 type  1   force =    -0.00107059   -0.00052628    0.00206574
     atom   50 type  1   force =     0.00094907   -0.00007048    0.00085468
     atom   51 type  1   force =     0.00146410    0.00046960    0.00208155
     atom   52 type  1   force =    -0.00092924    0.00043621    0.00144291
     atom   53 type  2   force =    -0.00091480    0.00011068   -0.00104571
     atom   54 type  2   force =     0.00065537    0.00008954   -0.00016603
     atom   55 type  2   force =    -0.00070295   -0.00154067   -0.00209779
     atom   56 type  2   force =     0.00016763   -0.00025796   -0.00024810
     atom   57 type  2   force =    -0.00088299   -0.00024747    0.00007635
     atom   58 type  2   force =     0.00210060   -0.00077950   -0.00148066
     atom   59 type  2   force =     0.00070667    0.00097878   -0.00107328
     atom   60 type  2   force =    -0.00010752    0.00018197    0.00026159
     atom   61 type  1   force =    -0.00403416    0.00798150    0.00390901
     atom   62 type  1   force =     0.00080243    0.00026366   -0.00107759
     atom   63 type  1   force =     0.00227577   -0.00531203    0.00378300
     atom   64 type  1   force =    -0.00043148   -0.00029285   -0.00081189
     atom   65 type  2   force =    -0.01524408    0.00932523    0.02598137
     atom   66 type  2   force =    -0.00012669    0.00029263    0.00040250
     atom   67 type  2   force =    -0.00067502    0.00180436    0.00040709
     atom   68 type  2   force =     0.00021189    0.00001546    0.00041298
     atom   69 type  2   force =     0.00916456   -0.01128788    0.01187448
     atom   70 type  2   force =    -0.00011320   -0.00012472    0.00083169
     atom   71 type  2   force =     0.00072258   -0.00340690    0.00194177
     atom   72 type  2   force =    -0.00017096   -0.00008354    0.00083318
     The non-local contrib.  to forces
     atom    1 type  1   force =    -0.00194598    0.00132793   -0.12002338
     atom    2 type  1   force =     0.00584184    0.00007587    0.00060433
     atom    3 type  1   force =    -0.03078154   -0.00263976    0.00259353
     atom    4 type  1   force =    -0.03082326    0.00062195    0.00165959
     atom    5 type  2   force =     0.83319737    0.12310932    0.63791122
     atom    6 type  2   force =     0.82074652    0.09819890    0.58098020
     atom    7 type  2   force =     0.80130707    0.02309275    0.45931083
     atom    8 type  2   force =     0.80309845    0.03666422    0.45661967
     atom    9 type  2   force =    -0.40726655    0.72925509   -0.50074494
     atom   10 type  2   force =    -0.36816837    0.76286797   -0.52811163
     atom   11 type  2   force =    -0.35790804    0.75429407   -0.52259626
     atom   12 type  2   force =    -0.36127104    0.74766338   -0.52129247
     atom   13 type  1   force =     0.00094745   -0.01044064   -0.02156288
     atom   14 type  1   force =     0.00531244   -0.00138441   -0.01482437
     atom   15 type  1   force =     0.00686902   -0.00520884    0.00087528
     atom   16 type  1   force =     0.00587878   -0.00505064    0.00257162
     atom   17 type  2   force =    -0.43042491    0.73622316    0.45764877
     atom   18 type  2   force =    -0.44322540    0.73513729    0.45416877
     atom   19 type  2   force =    -0.44967137    0.68448983    0.47923648
     atom   20 type  2   force =    -0.44739253    0.67858282    0.48456531
     atom   21 type  2   force =    -0.43239115   -0.73733433   -0.46359536
     atom   22 type  2   force =    -0.43859681   -0.73826223   -0.46121406
     atom   23 type  2   force =    -0.44747802   -0.68524673   -0.49208336
     atom   24 type  2   force =    -0.44840022   -0.67892292   -0.48491061
     atom   25 type  1   force =     0.00374052    0.00079670    0.01507135
     atom   26 type  1   force =     0.00546598    0.00130177    0.01500653
     atom   27 type  1   force =     0.00674403    0.00538421   -0.00287767
     atom   28 type  1   force =     0.00483355    0.00454419   -0.00363720
     atom   29 type  2   force =    -0.37012325   -0.76223433    0.52306069
     atom   30 type  2   force =    -0.36854488   -0.76328163    0.52861486
     atom   31 type  2   force =    -0.35899789   -0.74985725    0.52068526
     atom   32 type  2   force =    -0.36115449   -0.74997254    0.52105631
     atom   33 type  2   force =     0.82144838   -0.09691129   -0.58187854
     atom   34 type  2   force =     0.82015723   -0.09703462   -0.58006944
     atom   35 type  2   force =     0.80267494   -0.03532257   -0.45722882
     atom   36 type  2   force =     0.80393901   -0.03562953   -0.45560456
     atom   37 type  1   force =     0.00580268   -0.00026062   -0.00143663
     atom   38 type  1   force =     0.00584273    0.00021988   -0.00074239
     atom   39 type  1   force =    -0.03080682    0.00037389   -0.00087822
     atom   40 type  1   force =    -0.03081011   -0.00034329   -0.00108969
     atom   41 type  2   force =     0.82066302    0.09789444    0.57214419
     atom   42 type  2   force =     0.82191256    0.09775713    0.57391274
     atom   43 type  2   force =     0.80432041    0.03666015    0.44900074
     atom   44 type  2   force =     0.80303150    0.03637688    0.45061220
     atom   45 type  2   force =    -0.36883372    0.76427374   -0.53823217
     atom   46 type  2   force =    -0.37042912    0.76326435   -0.53275124
     atom   47 type  2   force =    -0.36210688    0.74791071   -0.52750507
     atom   48 type  2   force =    -0.35997142    0.74775150   -0.52715463
     atom   49 type  1   force =     0.00517816   -0.00155018   -0.01629525
     atom   50 type  1   force =     0.00347081   -0.00100764   -0.01638288
     atom   51 type  1   force =     0.00509714   -0.00429501    0.00100531
     atom   52 type  1   force =     0.00715404   -0.00511408    0.00020384
     atom   53 type  2   force =    -0.43939661    0.74299270    0.45567284
     atom   54 type  2   force =    -0.43324650    0.74213647    0.45818215
     atom   55 type  2   force =    -0.44890094    0.67140304    0.47674301
     atom   56 type  2   force =    -0.44788077    0.67770021    0.48397388
     atom   57 type  2   force =    -0.44121485   -0.74399323   -0.46175001
     atom   58 type  2   force =    -0.42835787   -0.74540496   -0.46545494
     atom   59 type  2   force =    -0.44650990   -0.67218188   -0.48984486
     atom   60 type  2   force =    -0.44895190   -0.67803517   -0.48438725
     atom   61 type  1   force =     0.00802589   -0.00858129    0.00955268
     atom   62 type  1   force =     0.00368994    0.00092274    0.01642906
     atom   63 type  1   force =     0.00503647    0.00461987   -0.00338887
     atom   64 type  1   force =     0.00608628    0.00456916   -0.00143978
     atom   65 type  2   force =    -0.32837174   -0.79889718    0.55224743
     atom   66 type  2   force =    -0.37084592   -0.76371711    0.53318208
     atom   67 type  2   force =    -0.36327788   -0.74319541    0.52542484
     atom   68 type  2   force =    -0.35981724   -0.75010554    0.52686300
     atom   69 type  2   force =     0.80712791   -0.06919747   -0.51864226
     atom   70 type  2   force =     0.82138859   -0.09654976   -0.57307261
     atom   71 type  2   force =     0.80574409   -0.04894581   -0.44697044
     atom   72 type  2   force =     0.80379076   -0.03533279   -0.44967546
     The ionic contribution  to forces
     atom    1 type  1   force =    -0.00759650    0.00298917   -0.20821451
     atom    2 type  1   force =     0.00913487    0.00000017   -0.00574636
     atom    3 type  1   force =    -0.16560828    0.00000013   -0.00588913
     atom    4 type  1   force =    -0.16554225    0.00000013   -0.00582254
     atom    5 type  2   force =    -3.55497573   -0.13902490   -2.03495348
     atom    6 type  2   force =    -3.45408459   -0.01777430   -1.94315991
     atom    7 type  2   force =    -3.43113937    0.43246544   -1.60357221
     atom    8 type  2   force =    -3.43654198    0.42756838   -1.59609859
     atom    9 type  2   force =     2.15472741   -2.70643561    1.75080784
     atom   10 type  2   force =     1.94530932   -2.83482786    1.64558565
     atom   11 type  2   force =     1.95702057   -3.03429922    1.76788437
     atom   12 type  2   force =     1.96259772   -3.03130883    1.77100968
     atom   13 type  1   force =     0.06078521    0.12025063   -0.10627091
     atom   14 type  1   force =     0.04351157    0.10555341   -0.11013192
     atom   15 type  1   force =     0.03104170   -0.17750426    0.02868529
[...]
     atom   18 type  2   force =     0.00777025   -0.01157659   -0.00683361
     atom   19 type  2   force =     0.00705425   -0.00812355   -0.00975664
     atom   20 type  2   force =     0.00700258   -0.00802165   -0.00985115
     atom   21 type  2   force =     0.00753536    0.01166210    0.00703089
     atom   22 type  2   force =     0.00766905    0.01166591    0.00700288
     atom   23 type  2   force =     0.00701880    0.00813989    0.01000765
     atom   24 type  2   force =     0.00702623    0.00800791    0.00986162
     atom   25 type  1   force =    -0.00037565    0.00014469   -0.00182242
     atom   26 type  1   force =    -0.00052809    0.00009072   -0.00180785
     atom   27 type  1   force =    -0.00053470   -0.00018059    0.00017831
     atom   28 type  1   force =    -0.00037054   -0.00009776    0.00025338
     atom   29 type  2   force =     0.00328402    0.01442088   -0.01224657
     atom   30 type  2   force =     0.00325820    0.01444771   -0.01236539
     atom   31 type  2   force =     0.00490269    0.01008170   -0.01150838
     atom   32 type  2   force =     0.00493876    0.01009050   -0.01152031
     atom   33 type  2   force =    -0.01216677    0.00238822    0.01538942
     atom   34 type  2   force =    -0.01213585    0.00238038    0.01537766
     atom   35 type  2   force =    -0.01239146    0.00167171    0.00669115
     atom   36 type  2   force =    -0.01242797    0.00167547    0.00665476
     atom   37 type  1   force =    -0.00109137    0.00002582    0.00011799
     atom   38 type  1   force =    -0.00109574   -0.00002034    0.00006210
     atom   39 type  1   force =     0.00319079   -0.00003619    0.00007236
     atom   40 type  1   force =     0.00319124    0.00003032    0.00009389
     atom   41 type  2   force =    -0.01215249   -0.00240830   -0.01521730
     atom   42 type  2   force =    -0.01218743   -0.00241279   -0.01525490
     atom   43 type  2   force =    -0.01243492   -0.00171449   -0.00650352
     atom   44 type  2   force =    -0.01239609   -0.00170840   -0.00654698
     atom   45 type  2   force =     0.00326168   -0.01448305    0.01256814
     atom   46 type  2   force =     0.00330420   -0.01444953    0.01243954
     atom   47 type  2   force =     0.00495959   -0.01005197    0.01165208
     atom   48 type  2   force =     0.00492515   -0.01004100    0.01164571
     atom   49 type  1   force =    -0.00049917   -0.00005762    0.00190758
     atom   50 type  1   force =    -0.00034890   -0.00011525    0.00192469
     atom   51 type  1   force =    -0.00039193    0.00006289   -0.00003128
     atom   52 type  1   force =    -0.00057061    0.00014292    0.00004712
     atom   53 type  2   force =     0.00769120   -0.01177991   -0.00687762
     atom   54 type  2   force =     0.00756379   -0.01176858   -0.00692208
     atom   55 type  2   force =     0.00704305   -0.00784438   -0.00968370
     atom   56 type  2   force =     0.00703406   -0.00797585   -0.00984601
     atom   57 type  2   force =     0.00772959    0.01179166    0.00701082
     atom   58 type  2   force =     0.00745084    0.01186189    0.00708051
     atom   59 type  2   force =     0.00700603    0.00785717    0.00996376
     atom   60 type  2   force =     0.00706589    0.00796735    0.00986900
     atom   61 type  1   force =    -0.00074699    0.00097018   -0.00129252
     atom   62 type  1   force =    -0.00036766    0.00012261   -0.00192973
     atom   63 type  1   force =    -0.00039181   -0.00009382    0.00027281
     atom   64 type  1   force =    -0.00047628   -0.00009423    0.00006173
     atom   65 type  2   force =     0.00270489    0.01512356   -0.01324208
     atom   66 type  2   force =     0.00331595    0.01445707   -0.01245061
     atom   67 type  2   force =     0.00499173    0.00996748   -0.01161689
     atom   68 type  2   force =     0.00491201    0.01010992   -0.01164683
     atom   69 type  2   force =    -0.01207291    0.00202007    0.01402261
     atom   70 type  2   force =    -0.01217952    0.00238522    0.01521109
     atom   71 type  2   force =    -0.01246859    0.00200602    0.00647431
     atom   72 type  2   force =    -0.01240476    0.00167683    0.00653761
     The Hubbard contrib.    to forces
     atom    1 type  1   force =     0.00000000    0.00000000    0.00000000
     atom    2 type  1   force =     0.00000000    0.00000000    0.00000000
     atom    3 type  1   force =     0.00000000    0.00000000    0.00000000
     atom    4 type  1   force =     0.00000000    0.00000000    0.00000000
     atom    5 type  2   force =     0.00000000    0.00000000    0.00000000
     atom    6 type  2   force =     0.00000000    0.00000000    0.00000000
     atom    7 type  2   force =     0.00000000    0.00000000    0.00000000
     atom    8 type  2   force =     0.00000000    0.00000000    0.00000000
     atom    9 type  2   force =     0.00000000    0.00000000    0.00000000
     atom   10 type  2   force =     0.00000000    0.00000000    0.00000000
     atom   11 type  2   force =     0.00000000    0.00000000    0.00000000
     atom   12 type  2   force =     0.00000000    0.00000000    0.00000000
     atom   13 type  1   force =     0.00000000    0.00000000    0.00000000
     atom   14 type  1   force =     0.00000000    0.00000000    0.00000000
     atom   15 type  1   force =     0.00000000    0.00000000    0.00000000
     atom   16 type  1   force =     0.00000000    0.00000000    0.00000000
     atom   17 type  2   force =     0.00000000    0.00000000    0.00000000
     atom   18 type  2   force =     0.00000000    0.00000000    0.00000000
     atom   19 type  2   force =     0.00000000    0.00000000    0.00000000
     atom   20 type  2   force =     0.00000000    0.00000000    0.00000000
     atom   21 type  2   force =     0.00000000    0.00000000    0.00000000
     atom   22 type  2   force =     0.00000000    0.00000000    0.00000000
     atom   23 type  2   force =     0.00000000    0.00000000    0.00000000
     atom   24 type  2   force =     0.00000000    0.00000000    0.00000000
     atom   25 type  1   force =     0.00000000    0.00000000    0.00000000
     atom   26 type  1   force =     0.00000000    0.00000000    0.00000000
     atom   27 type  1   force =     0.00000000    0.00000000    0.00000000
     atom   28 type  1   force =     0.00000000    0.00000000    0.00000000
     atom   29 type  2   force =     0.00000000    0.00000000    0.00000000
     atom   30 type  2   force =     0.00000000    0.00000000    0.00000000
     atom   31 type  2   force =     0.00000000    0.00000000    0.00000000
     atom   32 type  2   force =     0.00000000    0.00000000    0.00000000
     atom   33 type  2   force =     0.00000000    0.00000000    0.00000000
     atom   34 type  2   force =     0.00000000    0.00000000    0.00000000
     atom   35 type  2   force =     0.00000000    0.00000000    0.00000000
     atom   36 type  2   force =     0.00000000    0.00000000    0.00000000
     atom   37 type  1   force =     0.00000000    0.00000000    0.00000000
     atom   38 type  1   force =     0.00000000    0.00000000    0.00000000
     atom   39 type  1   force =     0.00000000    0.00000000    0.00000000
     atom   40 type  1   force =     0.00000000    0.00000000    0.00000000
     atom   41 type  2   force =     0.00000000    0.00000000    0.00000000
     atom   42 type  2   force =     0.00000000    0.00000000    0.00000000
     atom   43 type  2   force =     0.00000000    0.00000000    0.00000000
     atom   44 type  2   force =     0.00000000    0.00000000    0.00000000
     atom   45 type  2   force =     0.00000000    0.00000000    0.00000000
     atom   46 type  2   force =     0.00000000    0.00000000    0.00000000
     atom   47 type  2   force =     0.00000000    0.00000000    0.00000000
     atom   48 type  2   force =     0.00000000    0.00000000    0.00000000
     atom   49 type  1   force =     0.00000000    0.00000000    0.00000000
     atom   50 type  1   force =     0.00000000    0.00000000    0.00000000
     atom   51 type  1   force =     0.00000000    0.00000000    0.00000000
     atom   52 type  1   force =     0.00000000    0.00000000    0.00000000
     atom   53 type  2   force =     0.00000000    0.00000000    0.00000000
     atom   54 type  2   force =     0.00000000    0.00000000    0.00000000
     atom   55 type  2   force =     0.00000000    0.00000000    0.00000000
     atom   56 type  2   force =     0.00000000    0.00000000    0.00000000
     atom   57 type  2   force =     0.00000000    0.00000000    0.00000000
     atom   58 type  2   force =     0.00000000    0.00000000    0.00000000
     atom   59 type  2   force =     0.00000000    0.00000000    0.00000000
     atom   60 type  2   force =     0.00000000    0.00000000    0.00000000
     atom   61 type  1   force =     0.00000000    0.00000000    0.00000000
     atom   62 type  1   force =     0.00000000    0.00000000    0.00000000
     atom   63 type  1   force =     0.00000000    0.00000000    0.00000000
     atom   64 type  1   force =     0.00000000    0.00000000    0.00000000
     atom   65 type  2   force =     0.00000000    0.00000000    0.00000000
     atom   66 type  2   force =     0.00000000    0.00000000    0.00000000
     atom   67 type  2   force =     0.00000000    0.00000000    0.00000000
     atom   68 type  2   force =     0.00000000    0.00000000    0.00000000
     atom   69 type  2   force =     0.00000000    0.00000000    0.00000000
     atom   70 type  2   force =     0.00000000    0.00000000    0.00000000
     atom   71 type  2   force =     0.00000000    0.00000000    0.00000000
     atom   72 type  2   force =     0.00000000    0.00000000    0.00000000
     The SCF correction term to forces
     atom    1 type  1   force =    -0.00000012   -0.00000006   -0.00000006
     atom    2 type  1   force =     0.00000006    0.00000012    0.00000006
     atom    3 type  1   force =     0.00000003    0.00000033   -0.00000011
     atom    4 type  1   force =    -0.00000015    0.00000001    0.00000015
     atom    5 type  2   force =    -0.00000042   -0.00000016    0.00000060
     atom    6 type  2   force =    -0.00000035   -0.00000061   -0.00000017
     atom    7 type  2   force =    -0.00000031    0.00000092   -0.00000041
     atom    8 type  2   force =    -0.00000002    0.00000041   -0.00000004
     atom    9 type  2   force =    -0.00000072   -0.00000028   -0.00000008
     atom   10 type  2   force =     0.00000070   -0.00000005    0.00000043
     atom   11 type  2   force =     0.00000017   -0.00000033    0.00000035
     atom   12 type  2   force =    -0.00000010   -0.00000054   -0.00000039
     atom   13 type  1   force =    -0.00000018    0.00000022    0.00000011
     atom   14 type  1   force =     0.00000005    0.00000016    0.00000001
     atom   15 type  1   force =    -0.00000002   -0.00000008    0.00000011
     atom   16 type  1   force =     0.00000008   -0.00000035   -0.00000008
     atom   17 type  2   force =     0.00000028   -0.00000010   -0.00000020
     atom   18 type  2   force =     0.00000041    0.00000004    0.00000004
     atom   19 type  2   force =    -0.00000052   -0.00000053   -0.00000029
     atom   20 type  2   force =     0.00000042   -0.00000081   -0.00000033
     atom   21 type  2   force =     0.00000066    0.00000005   -0.00000023
     atom   22 type  2   force =     0.00000006   -0.00000001    0.00000009
     atom   23 type  2   force =    -0.00000048    0.00000064    0.00000012
     atom   24 type  2   force =     0.00000044    0.00000072    0.00000012
     atom   25 type  1   force =    -0.00000022   -0.00000008   -0.00000002
     atom   26 type  1   force =     0.00000013   -0.00000013   -0.00000015
     atom   27 type  1   force =    -0.00000006    0.00000018   -0.00000009
     atom   28 type  1   force =     0.00000016    0.00000039   -0.00000000
     atom   29 type  2   force =    -0.00000021    0.00000006   -0.00000040
     atom   30 type  2   force =     0.00000062    0.00000031   -0.00000054
     atom   31 type  2   force =     0.00000015    0.00000061   -0.00000054
     atom   32 type  2   force =     0.00000014    0.00000048   -0.00000002
     atom   33 type  2   force =    -0.00000049    0.00000017   -0.00000059
     atom   34 type  2   force =    -0.00000029    0.00000062    0.00000003
     atom   35 type  2   force =    -0.00000046   -0.00000051    0.00000022
     atom   36 type  2   force =    -0.00000006   -0.00000060   -0.00000002
     atom   37 type  1   force =    -0.00000019   -0.00000026   -0.00000038
     atom   38 type  1   force =     0.00000013   -0.00000005   -0.00000001
     atom   39 type  1   force =    -0.00000005   -0.00000013    0.00000004
     atom   40 type  1   force =    -0.00000001   -0.00000003   -0.00000013
     atom   41 type  2   force =    -0.00000029   -0.00000045   -0.00000085
     atom   42 type  2   force =    -0.00000048   -0.00000043   -0.00000008
     atom   43 type  2   force =    -0.00000022    0.00000085   -0.00000042
     atom   44 type  2   force =    -0.00000050    0.00000036   -0.00000016
     atom   45 type  2   force =     0.00000025   -0.00000032   -0.00000007
     atom   46 type  2   force =     0.00000022    0.00000014    0.00000019
     atom   47 type  2   force =     0.00000025   -0.00000049   -0.00000022
     atom   48 type  2   force =     0.00000004   -0.00000065    0.00000016
     atom   49 type  1   force =    -0.00000000    0.00000053    0.00000001
     atom   50 type  1   force =    -0.00000008    0.00000027    0.00000004
     atom   51 type  1   force =     0.00000025   -0.00000026   -0.00000013
     atom   52 type  1   force =     0.00000005   -0.00000028    0.00000011
     atom   53 type  2   force =    -0.00000049    0.00000017   -0.00000034
     atom   54 type  2   force =     0.00000032    0.00000011   -0.00000010
     atom   55 type  2   force =     0.00000076   -0.00000090    0.00000007
     atom   56 type  2   force =     0.00000004   -0.00000095    0.00000010
     atom   57 type  2   force =    -0.00000010   -0.00000020    0.00000042
     atom   58 type  2   force =    -0.00000027   -0.00000036    0.00000039
     atom   59 type  2   force =     0.00000035    0.00000112    0.00000043
     atom   60 type  2   force =     0.00000029    0.00000085    0.00000013
     atom   61 type  1   force =    -0.00000005   -0.00000027    0.00000005
     atom   62 type  1   force =    -0.00000014   -0.00000036    0.00000003
     atom   63 type  1   force =     0.00000008    0.00000017    0.00000011
     atom   64 type  1   force =     0.00000022    0.00000028    0.00000012
     atom   65 type  2   force =     0.00000033    0.00000009   -0.00000003
     atom   66 type  2   force =     0.00000023   -0.00000002   -0.00000003
     atom   67 type  2   force =    -0.00000001    0.00000065    0.00000037
     atom   68 type  2   force =     0.00000007    0.00000101    0.00000013
     atom   69 type  2   force =     0.00000001    0.00000001    0.00000114
     atom   70 type  2   force =    -0.00000027    0.00000039    0.00000017
     atom   71 type  2   force =    -0.00000003   -0.00000055    0.00000021
     atom   72 type  2   force =    -0.00000038   -0.00000051    0.00000030

     Total force =     0.109841     Total SCF correction =     0.000005

     Writing all to output data dir ./SiO2_OR_72_2.save/
 
     init_run     :      5.87s CPU      3.92s WALL (       1 calls)
     electrons    :     14.48s CPU     15.36s WALL (       1 calls)
     forces       :      0.60s CPU      0.41s WALL (       1 calls)

     Called by init_run:
     wfcinit      :      0.25s CPU      0.40s WALL (       1 calls)
                                        0.40s GPU  (       1 calls)
     wfcinit:atom :      0.00s CPU      0.00s WALL (       1 calls)
                                        0.00s GPU  (       1 calls)
     wfcinit:wfcr :      0.19s CPU      0.33s WALL (       1 calls)
                                        0.33s GPU  (       1 calls)
     potinit      :      1.84s CPU      0.71s WALL (       1 calls)
     hinit0       :      2.93s CPU      1.76s WALL (       1 calls)

     Called by electrons:
     c_bands      :      9.33s CPU     12.05s WALL (      15 calls)
     sum_band     :      1.05s CPU      1.22s WALL (      15 calls)
     v_of_rho     :      2.91s CPU      0.90s WALL (      16 calls)
     v_h          :      0.12s CPU      0.05s WALL (      16 calls)
     v_xc         :      2.94s CPU      0.91s WALL (      17 calls)
     newd         :      1.32s CPU      1.70s WALL (      16 calls)
                                        1.70s GPU  (      16 calls)
     mix_rho      :      0.44s CPU      0.27s WALL (      15 calls)

     Called by c_bands:
     init_us_2_gp :      0.18s CPU      0.19s WALL (      31 calls)
     cegterg      :      8.11s CPU     10.78s WALL (      15 calls)

     Called by sum_band:
     sum_band:wei :      0.01s CPU      0.02s WALL (      15 calls)
                                        0.02s GPU  (      15 calls)
     sum_band:loo :      0.62s CPU      0.94s WALL (      15 calls)
                                        0.94s GPU  (      15 calls)
     sum_band:buf :      0.00s CPU      0.00s WALL (      15 calls)
                                        0.00s GPU  (      15 calls)
     sum_band:ini :      0.08s CPU      0.09s WALL (      15 calls)
                                        0.09s GPU  (      15 calls)
     sum_band:cal :      0.03s CPU      0.04s WALL (      15 calls)
                                        0.04s GPU  (      15 calls)
     sum_band:bec :      0.02s CPU      0.03s WALL (      15 calls)
                                        0.03s GPU  (      15 calls)
     addusdens    :      0.12s CPU      0.09s WALL (      15 calls)
                                        0.09s GPU  (      15 calls)
     addusd:skk   :      0.03s CPU      0.02s WALL (      30 calls)
                                        0.02s GPU  (      30 calls)

     Called by *egterg:
     cdiaghg      :      3.97s CPU      4.77s WALL (     112 calls)
                                        4.75s GPU  (     112 calls)
     cegterg:over :      0.15s CPU      0.18s WALL (      97 calls)
     cegterg:upda :      0.12s CPU      0.14s WALL (      97 calls)
     cegterg:last :      0.08s CPU      0.11s WALL (      35 calls)
     h_psi        :      2.60s CPU      3.63s WALL (     113 calls)
                                        3.61s GPU  (     113 calls)
     s_psi        :      0.09s CPU      0.20s WALL (     113 calls)
                                        0.17s GPU  (     113 calls)
     g_psi        :      0.00s CPU      0.04s WALL (      97 calls)
                                        0.00s GPU  (      97 calls)

     Called by h_psi:
     h_psi:calbec :      0.14s CPU      0.18s WALL (     113 calls)
                                        0.15s GPU  (     113 calls)
     vloc_psi     :      2.20s CPU      3.15s WALL (     113 calls)
                                        3.12s GPU  (     113 calls)
     add_vuspsi   :      0.09s CPU      0.21s WALL (     113 calls)
                                        0.20s GPU  (     113 calls)

     General routines
     calbec       :      0.18s CPU      0.22s WALL (     132 calls)
     fft          :      1.74s CPU      1.02s WALL (     217 calls)
                                        0.32s GPU  (      20 calls)
     ffts         :      0.16s CPU      0.09s WALL (      31 calls)
     fftw         :      2.04s CPU      3.64s WALL (    1605 calls)
                                        2.74s GPU  (    1605 calls)
     interpolate  :      0.24s CPU      0.12s WALL (      16 calls)
 
     Parallel routines
 
     PWSCF        :     21.57s CPU     20.42s WALL

 
   This run was terminated on:  15:18:48  29Sep2021            

=------------------------------------------------------------------------------=
   JOB DONE.
=------------------------------------------------------------------------------=
