
     Program PWSCF v.6.8 starts on 30Sep2021 at  9:13: 7 

     This program is part of the open-source Quantum ESPRESSO suite
     for quantum simulation of materials; please cite
         "P. Giannozzi et al., J. Phys.:Condens. Matter 21 395502 (2009);
         "P. Giannozzi et al., J. Phys.:Condens. Matter 29 465901 (2017);
         "P. Giannozzi et al., J. Chem. Phys. 152 154105 (2020);
          URL http://www.quantum-espresso.org", 
     in publications or presentations arising from this work. More details at
     http://www.quantum-espresso.org/quote

     Parallel version (MPI & OpenMP), running on     128 processor cores
     Number of MPI processes:                16
     Threads/MPI process:                     8

     MPI processes distributed on     4 nodes
     R & G space division:  proc/nbgrp/npool/nimage =      16
     294048 MiB available memory on the printing compute node when the environment starts
 
     Reading input from 012.in

     Current dimensions of program PWSCF are:
     Max number of different atomic species (ntypx) = 10
     Max number of k-points (npk) =  40000
     Max angular momentum in pseudopotentials (lmaxx) =  4
     file O.pbe-n-kjpaw_psl.0.1.UPF: wavefunction(s)  2P renormalized

     gamma-point specific algorithms are used

     Subspace diagonalization in iterative solution of the eigenvalue problem:
     a serial algorithm will be used

 
     Parallelization info
     --------------------
     sticks:   dense  smooth     PW     G-vecs:    dense   smooth      PW
     Min        6040    3020    754              1412784   499468   62403
     Max        6042    3022    758              1412790   499470   62414
     Sum       96661   48333  12077             22604579  7991501  998513
 
     Using Slab Decomposition
 


     bravais-lattice index     =            1
     lattice parameter (alat)  =      50.3026  a.u.
     unit-cell volume          =  127283.4124 (a.u.)^3
     number of atoms/cell      =          711
     number of atomic types    =            2
     number of electrons       =      1896.00
     number of Kohn-Sham states=          948
     kinetic-energy cutoff     =      60.0000  Ry
     charge density cutoff     =     480.0000  Ry
     scf convergence threshold =      1.0E-10
     mixing beta               =       0.7000
     number of iterations used =            8  plain     mixing
     Exchange-correlation= SLA  PW   PBX  PBC
                           (   1   4   3   4   0   0   0)

     GPU acceleration is ACTIVE.


     GPU used by master process:

        Device Number: 0
        Device name: Tesla V100-SXM2-16GB
        Compute capability : 70
        Ratio of single to double precision performance  : 2
        Memory Clock Rate (KHz): 877000
        Memory Bus Width (bits): 4096
        Peak Memory Bandwidth (GB/s): 898.05

     celldm(1)=  50.302620  celldm(2)=   0.000000  celldm(3)=   0.000000
     celldm(4)=   0.000000  celldm(5)=   0.000000  celldm(6)=   0.000000

     crystal axes: (cart. coord. in units of alat)
               a(1) = (   1.000000   0.000000   0.000000 )  
               a(2) = (   0.000000   1.000000   0.000000 )  
               a(3) = (   0.000000   0.000000   1.000000 )  

     reciprocal axes: (cart. coord. in units 2 pi/alat)
               b(1) = (  1.000000  0.000000  0.000000 )  
               b(2) = (  0.000000  1.000000  0.000000 )  
               b(3) = (  0.000000  0.000000  1.000000 )  


     PseudoPot. # 1 for H  read from file:
     ./H.pbe-rrkjus_psl.1.0.0.UPF
     MD5 check sum: f52b6d4d1c606e5624b1dc7b2218f220
     Pseudo is Ultrasoft, Zval =  1.0
     Generated using "atomic" code by A. Dal Corso  v.5.1
     Using radial grid of  929 points,  2 beta functions with: 
                l(1) =   0
                l(2) =   0
     Q(r) pseudized with 0 coefficients 


     PseudoPot. # 2 for O  read from file:
     ./O.pbe-n-kjpaw_psl.0.1.UPF
     MD5 check sum: 0234752ac141de4415c5fc33072bef88
     Pseudo is Projector augmented-wave + core cor, Zval =  6.0
     Generated using "atomic" code by A. Dal Corso  v.5.0.99 svn rev. 10869
     Shape of augmentation charge: BESSEL
     Using radial grid of 1095 points,  4 beta functions with: 
                l(1) =   0
                l(2) =   0
                l(3) =   1
                l(4) =   1
     Q(r) pseudized with 0 coefficients 


     atomic species   valence    mass     pseudopotential
        H              1.00     1.00000     H ( 1.00)
        O              6.00    16.00000     O ( 1.00)

     No symmetry found


                                    s                        frac. trans.

      isym =  1     identity                                     

 cryst.   s( 1) = (     1          0          0      )
                  (     0          1          0      )
                  (     0          0          1      )

 cart.    s( 1) = (  1.0000000  0.0000000  0.0000000 )
                  (  0.0000000  1.0000000  0.0000000 )
                  (  0.0000000  0.0000000  1.0000000 )


     point group C_1 (1)    
     there are  1 classes
     the character table:

       E    
A      1.00

     the symmetry operations in each class and the name of the first element:

     E        1
          identity                                               

   Cartesian axes

     site n.     atom                  positions (alat units)
         1           O   tau(   1) = (  -0.2969837   0.3065310  -0.0887438  )
         2           H   tau(   2) = (  -0.3045047   0.2699406  -0.0927634  )
         3           H   tau(   3) = (  -0.3172024   0.3204309  -0.0602904  )
         4           O   tau(   4) = (  -0.1854469   0.2977403  -0.1627961  )
         5           H   tau(   5) = (  -0.1772272   0.3118656  -0.1289744  )
         6           H   tau(   6) = (  -0.1936628   0.2612251  -0.1594414  )
         7           O   tau(   7) = (   0.3665348  -0.0457512  -0.2616315  )
         8           H   tau(   8) = (   0.3457226  -0.0768455  -0.2583707  )
         9           H   tau(   9) = (   0.3896762  -0.0430388  -0.2321639  )
        10           O   tau(  10) = (   0.1551820   0.1163661   0.2511075  )
        11           H   tau(  11) = (   0.1924862   0.1207615   0.2504688  )
        12           H   tau(  12) = (   0.1433859   0.1046076   0.2174473  )
        13           O   tau(  13) = (  -0.1348477   0.1913502   0.1445670  )
        14           H   tau(  14) = (  -0.1163158   0.1612964   0.1574150  )
        15           H   tau(  15) = (  -0.1274131   0.1959709   0.1080518  )
        16           O   tau(  16) = (   0.2988388   0.3054416  -0.0446024  )
        17           H   tau(  17) = (   0.3200267   0.3313254  -0.0616729  )
        18           H   tau(  18) = (   0.2992145   0.3114148  -0.0075161  )
        19           O   tau(  19) = (  -0.1989147   0.3733630  -0.0799230  )
        20           H   tau(  20) = (  -0.1794511   0.3741895  -0.0478068  )
        21           H   tau(  21) = (  -0.2198208   0.3421823  -0.0810876  )
        22           O   tau(  22) = (   0.3226188  -0.1744412  -0.1458571  )
        23           H   tau(  23) = (   0.3429051  -0.1429186  -0.1480848  )
        24           H   tau(  24) = (   0.3036850  -0.1748845  -0.1133991  )
        25           O   tau(  25) = (   0.0474394   0.1167418   0.2123757  )
        26           H   tau(  26) = (   0.0722337   0.1296649   0.2374330  )
        27           H   tau(  27) = (   0.0654341   0.0969815   0.1860036  )
        28           O   tau(  28) = (   0.0011079   0.1496882  -0.4064078  )
        29           H   tau(  29) = (   0.0048007   0.1644521  -0.3720527  )
        30           H   tau(  30) = (  -0.0020854   0.1123840  -0.4037406  )
        31           O   tau(  31) = (  -0.1823363   0.1607329  -0.1839840  )
        32           H   tau(  32) = (  -0.1967583   0.1272230  -0.1929400  )
        33           H   tau(  33) = (  -0.1475942   0.1635505  -0.1980003  )
        34           O   tau(  34) = (   0.0005631   0.0346951  -0.3964638  )
        35           H   tau(  35) = (   0.0140798   0.0037398  -0.3800244  )
        36           H   tau(  36) = (  -0.0343443   0.0411567  -0.3841869  )
        37           O   tau(  37) = (  -0.3411815   0.2045362   0.0251411  )
        38           H   tau(  38) = (  -0.3196856   0.1813197   0.0454273  )
        39           H   tau(  39) = (  -0.3378192   0.2395113   0.0384023  )
        40           O   tau(  40) = (   0.1825685   0.2078046  -0.2568831  )
        41           H   tau(  41) = (   0.1789245   0.1998403  -0.2934171  )
        42           H   tau(  42) = (   0.1614933   0.1840997  -0.2367395  )
        43           O   tau(  43) = (  -0.1211544  -0.2728070  -0.2207510  )
        44           H   tau(  44) = (  -0.1229840  -0.2357883  -0.2268932  )
        45           H   tau(  45) = (  -0.1557087  -0.2861997  -0.2145862  )
        46           O   tau(  46) = (  -0.2563173   0.0386021   0.1180446  )
        47           H   tau(  47) = (  -0.2525906   0.0713231   0.1361520  )
        48           H   tau(  48) = (  -0.2477595   0.0433356   0.0817548  )
        49           O   tau(  49) = (   0.0067166   0.1768492  -0.3104651  )
        50           H   tau(  50) = (   0.0295199   0.1605827  -0.2854303  )
        51           H   tau(  51) = (  -0.0043431   0.2102840  -0.2974518  )
        52           O   tau(  52) = (   0.1421838   0.1065611  -0.1645167  )
        53           H   tau(  53) = (   0.1762572   0.1072749  -0.1486521  )
        54           H   tau(  54) = (   0.1217472   0.0790619  -0.1490804  )
        55           O   tau(  55) = (   0.0607758  -0.1175194  -0.2627773  )
        56           H   tau(  56) = (   0.0277542  -0.1095665  -0.2467024  )
        57           H   tau(  57) = (   0.0622033  -0.1541474  -0.2709970  )
        58           O   tau(  58) = (  -0.1610395  -0.1351835   0.3537785  )
        59           H   tau(  59) = (  -0.1780499  -0.1456572   0.3855979  )
        60           H   tau(  60) = (  -0.1272441  -0.1514538   0.3517123  )
        61           O   tau(  61) = (  -0.0752586   0.1086273   0.0289729  )
        62           H   tau(  62) = (  -0.0656903   0.1094162  -0.0073620  )
        63           H   tau(  63) = (  -0.1015594   0.0823303   0.0343826  )
        64           O   tau(  64) = (   0.1291855   0.0015985   0.2524975  )
        65           H   tau(  65) = (   0.1350085  -0.0134922   0.2186119  )
        66           H   tau(  66) = (   0.1279083   0.0390154   0.2495297  )
        67           O   tau(  67) = (   0.2912127  -0.3057647  -0.0769214  )
        68           H   tau(  68) = (   0.3163827  -0.3023724  -0.1046159  )
        69           H   tau(  69) = (   0.3090195  -0.3135185  -0.0447451  )
        70           O   tau(  70) = (   0.0458992   0.1774879  -0.0380957  )
        71           H   tau(  71) = (   0.0603250   0.1553233  -0.0114306  )
        72           H   tau(  72) = (   0.0733232   0.1979995  -0.0535358  )
        73           O   tau(  73) = (   0.0827901  -0.1302998   0.3509985  )
        74           H   tau(  74) = (   0.1165254  -0.1456572   0.3449127  )
        75           H   tau(  75) = (   0.0723840  -0.1106033   0.3207570  )
        76           O   tau(  76) = (   0.3778050   0.0978080  -0.1472095  )
        77           H   tau(  77) = (   0.3634167   0.0658007  -0.1338018  )
        78           H   tau(  78) = (   0.3553774   0.1264717  -0.1379041  )
        79           O   tau(  79) = (  -0.3139979  -0.2240862  -0.1145036  )
        80           H   tau(  80) = (  -0.3388110  -0.2304876  -0.1419764  )
        81           H   tau(  81) = (  -0.3209403  -0.2472163  -0.0857234  )
        82           O   tau(  82) = (  -0.1165938   0.1007758   0.2676746  )
        83           H   tau(  83) = (  -0.1135659   0.0925486   0.3041899  )
        84           H   tau(  84) = (  -0.1298249   0.0709099   0.2491164  )
        85           O   tau(  85) = (   0.2174308  -0.1176434   0.1871682  )
        86           H   tau(  86) = (   0.1830193  -0.1026316   0.1860412  )
        87           H   tau(  87) = (   0.2424129  -0.0927101   0.1742827  )
        88           O   tau(  88) = (  -0.2105605  -0.3748619   0.0828442  )
        89           H   tau(  89) = (  -0.2083891  -0.3955690   0.1141001  )
        90           H   tau(  90) = (  -0.2383489  -0.3878301   0.0611304  )
        91           O   tau(  91) = (  -0.3208276   0.1103930  -0.2818840  )
        92           H   tau(  92) = (  -0.3393407   0.1381175  -0.2991762  )
        93           H   tau(  93) = (  -0.3260832   0.1130602  -0.2447827  )
        94           O   tau(  94) = (  -0.0239983  -0.4313066  -0.0199733  )
        95           H   tau(  95) = (  -0.0208276  -0.4054454   0.0071088  )
        96           H   tau(  96) = (   0.0082569  -0.4503682  -0.0229148  )
        97           O   tau(  97) = (  -0.2698452  -0.1363857   0.2015188  )
        98           H   tau(  98) = (  -0.3014054  -0.1392708   0.1813453  )
        99           H   tau(  99) = (  -0.2596833  -0.1002874   0.2037729  )
       100           O   tau( 100) = (   0.2029299  -0.2948890   0.0192806  )
       101           H   tau( 101) = (   0.1799388  -0.3242665   0.0237135  )
       102           H   tau( 102) = (   0.2212626  -0.2981836  -0.0133502  )
       103           O   tau( 103) = (   0.0288437   0.0016360  -0.1560265  )
       104           H   tau( 104) = (   0.0606255   0.0067452  -0.1366907  )
       105           H   tau( 105) = (   0.0004316   0.0185037  -0.1381333  )
       106           O   tau( 106) = (  -0.3748116  -0.1147770   0.1864544  )
       107           H   tau( 107) = (  -0.3650704  -0.1036647   0.2209786  )
       108           H   tau( 108) = (  -0.4045385  -0.1376479   0.1885582  )
       109           O   tau( 109) = (  -0.0023746   0.0266558   0.0446008  )
       110           H   tau( 110) = (  -0.0205872  -0.0055844   0.0382520  )
       111           H   tau( 111) = (  -0.0272591   0.0539295   0.0514381  )
       112           O   tau( 112) = (  -0.0436985  -0.2804144  -0.2792430  )
       113           H   tau( 113) = (  -0.0747290  -0.2788967  -0.2581228  )
       114           H   tau( 114) = (  -0.0363691  -0.3161595  -0.2881802  )
       115           O   tau( 115) = (  -0.0403174  -0.0606052  -0.0859037  )
       116           H   tau( 116) = (  -0.0035730  -0.0555449  -0.0799455  )
       117           H   tau( 117) = (  -0.0546756  -0.0300143  -0.1023130  )
       118           O   tau( 118) = (   0.0326755   0.0014482   0.1386690  )
       119           H   tau( 119) = (   0.0293321   0.0188794   0.1055723  )
       120           H   tau( 120) = (   0.0085574  -0.0273057   0.1401717  )
       121           O   tau( 121) = (  -0.1013303   0.0844341  -0.4166674  )
       122           H   tau( 122) = (  -0.1096852   0.1181318  -0.4310481  )
       123           H   tau( 123) = (  -0.0960821   0.0598651  -0.4445911  )
       124           O   tau( 124) = (  -0.0678805  -0.0604286   0.0147725  )
       125           H   tau( 125) = (  -0.1015970  -0.0468406   0.0242395  )
       126           H   tau( 126) = (  -0.0632334  -0.0575998  -0.0224152  )
       127           O   tau( 127) = (  -0.0238818   0.2618637   0.1072253  )
       128           H   tau( 128) = (  -0.0129160   0.2511195   0.1415241  )
       129           H   tau( 129) = (  -0.0029644   0.2909782   0.0959551  )
       130           O   tau( 130) = (  -0.3109287   0.2085935  -0.1011597  )
       131           H   tau( 131) = (  -0.3467790   0.1986758  -0.0958815  )
       132           H   tau( 132) = (  -0.3048278   0.2144915  -0.1377576  )
       133           O   tau( 133) = (   0.0542391  -0.2887355  -0.2046534  )
       134           H   tau( 134) = (   0.0357185  -0.2707746  -0.2319835  )
       135           H   tau( 135) = (   0.0300083  -0.3091870  -0.1844987  )
       136           O   tau( 136) = (  -0.0888918   0.3402664  -0.0921811  )
       137           H   tau( 137) = (  -0.0716071   0.3463147  -0.0593813  )
       138           H   tau( 138) = (  -0.1036218   0.3057046  -0.0923915  )
       139           O   tau( 139) = (  -0.1316244  -0.0359649   0.1359266  )
       140           H   tau( 140) = (  -0.1444310  -0.0278091   0.1703005  )
       141           H   tau( 141) = (  -0.0953946  -0.0456685   0.1380679  )
       142           O   tau( 142) = (  -0.0437624   0.1586292   0.3255280  )
       143           H   tau( 143) = (  -0.0178110   0.1834986   0.3145584  )
       144           H   tau( 144) = (  -0.0779823   0.1719279   0.3175638  )
       145           O   tau( 145) = (  -0.1019651   0.0695950   0.3760183  )
       146           H   tau( 146) = (  -0.0709760   0.0484447   0.3742150  )
       147           H   tau( 147) = (  -0.1106281   0.0760566   0.4120076  )
       148           O   tau( 148) = (  -0.2870360  -0.0434220  -0.0080608  )
       149           H   tau( 149) = (  -0.2862621  -0.0613528   0.0249532  )
       150           H   tau( 150) = (  -0.2912134  -0.0684154  -0.0357966  )
       151           O   tau( 151) = (   0.0597990  -0.3466077   0.1485492  )
       152           H   tau( 152) = (   0.0303839  -0.3673635   0.1378801  )
       153           H   tau( 153) = (   0.0613768  -0.3154157   0.1276994  )
       154           O   tau( 154) = (  -0.1178297   0.0569349  -0.1802536  )
       155           H   tau( 155) = (  -0.1544765   0.0563338  -0.1884808  )
       156           H   tau( 156) = (  -0.0984676   0.0688061  -0.2101683  )
       157           O   tau( 157) = (   0.1545809  -0.2443349   0.2420538  )
       158           H   tau( 158) = (   0.1481194  -0.2705304   0.2682005  )
       159           H   tau( 159) = (   0.1815917  -0.2211259   0.2540002  )
       160           O   tau( 160) = (  -0.2278414  -0.1628179  -0.2309467  )
       161           H   tau( 161) = (  -0.2391566  -0.1982325  -0.2363564  )
       162           H   tau( 162) = (  -0.2093020  -0.1604362  -0.1983609  )
       163           O   tau( 163) = (  -0.3909692  -0.0287107  -0.0606210  )
       164           H   tau( 164) = (  -0.3600740  -0.0304200  -0.0393129  )
       165           H   tau( 165) = (  -0.4196743  -0.0159003  -0.0400530  )
       166           O   tau( 166) = (   0.2145757   0.2606616   0.0819050  )
       167           H   tau( 167) = (   0.1847849   0.2494665   0.1019283  )
       168           H   tau( 168) = (   0.2116454   0.2973647   0.0746170  )
       169           O   tau( 169) = (  -0.2039675  -0.2653199  -0.1104613  )
       170           H   tau( 170) = (  -0.1950490  -0.2358823  -0.1320286  )
       171           H   tau( 171) = (  -0.2163571  -0.2531406  -0.0771505  )
       172           O   tau( 172) = (   0.2628119   0.1097167  -0.1419464  )
       173           H   tau( 173) = (   0.2449299   0.0806773  -0.1262245  )
       174           H   tau( 174) = (   0.2747207   0.1000244  -0.1762226  )
       175           O   tau( 175) = (  -0.1135095  -0.1685394   0.1019659  )
       176           H   tau( 176) = (  -0.1397464  -0.1455821   0.0879533  )
       177           H   tau( 177) = (  -0.0802250  -0.1603648   0.0865634  )
       178           O   tau( 178) = (   0.4028998   0.1380048   0.1071502  )
       179           H   tau( 179) = (   0.3900518   0.1273357   0.1408103  )
       180           H   tau( 180) = (   0.4144705   0.1078008   0.0880285  )
       181           O   tau( 181) = (  -0.1002370  -0.1584827  -0.2166073  )
       182           H   tau( 182) = (  -0.1048052  -0.1620027  -0.2537274  )
       183           H   tau( 183) = (  -0.0699467  -0.1373699  -0.2096649  )
       184           O   tau( 184) = (  -0.1486311   0.1963466   0.2912668  )
       185           H   tau( 185) = (  -0.1396149   0.1653161   0.2721451  )
       186           H   tau( 186) = (  -0.1754690   0.1883072   0.3162865  )
       187           O   tau( 187) = (  -0.1195804  -0.2871088   0.2558034  )
       188           H   tau( 188) = (  -0.1473049  -0.2800312   0.2314599  )
       189           H   tau( 189) = (  -0.0972242  -0.2570288   0.2583955  )
       190           O   tau( 190) = (  -0.1381348   0.2773789  -0.2550949  )
       191           H   tau( 191) = (  -0.1325410   0.3040892  -0.2809335  )
       192           H   tau( 192) = (  -0.1627300   0.2897010  -0.2295041  )
       193           O   tau( 193) = (  -0.2172024   0.1303787  -0.3128168  )
       194           H   tau( 194) = (  -0.2136260   0.1619727  -0.2928235  )
       195           H   tau( 195) = (  -0.2520910   0.1170048  -0.3089511  )
       196           O   tau( 196) = (   0.3730339   0.1174931   0.2132774  )
       197           H   tau( 197) = (   0.3765652   0.1526936   0.2259375  )
       198           H   tau( 198) = (   0.3779552   0.0934126   0.2416781  )
       199           O   tau( 199) = (   0.1331677  -0.3159041  -0.2758883  )
       200           H   tau( 200) = (   0.1374503  -0.3530993  -0.2789538  )
       201           H   tau( 201) = (   0.1200943  -0.3075904  -0.2416684  )
       202           O   tau( 202) = (   0.0502570   0.2265130   0.3150843  )
       203           H   tau( 203) = (   0.0827901   0.2271517   0.3337928  )
       204           H   tau( 204) = (   0.0273034   0.2528100   0.3289842  )
       205           O   tau( 205) = (   0.1537169  -0.1621229   0.0212716  )
       206           H   tau( 206) = (   0.1795255  -0.1635655   0.0485078  )
       207           H   tau( 207) = (   0.1230245  -0.1446016   0.0340069  )
       208           O   tau( 208) = (   0.2520677  -0.0034355   0.1429892  )
       209           H   tau( 209) = (   0.2235918  -0.0008058   0.1186457  )
       210           H   tau( 210) = (   0.2823844   0.0135824   0.1286761  )
       211           O   tau( 211) = (  -0.1055115  -0.1640238  -0.3185796  )
       212           H   tau( 212) = (  -0.0843274  -0.1466603  -0.3442868  )
       213           H   tau( 213) = (  -0.1032650  -0.2011965  -0.3235347  )
       214           O   tau( 214) = (   0.1872268  -0.0081277   0.3294726  )
       215           H   tau( 215) = (   0.1758064  -0.0348567   0.3532526  )
       216           H   tau( 216) = (   0.1647241  -0.0076881   0.2993813  )
       217           O   tau( 217) = (  -0.3215076  -0.0735396  -0.2291961  )
       218           H   tau( 218) = (  -0.3576509  -0.0733593  -0.2394369  )
       219           H   tau( 219) = (  -0.3190357  -0.0696702  -0.1919107  )
       220           O   tau( 220) = (  -0.0321691   0.2671982  -0.2636677  )
       221           H   tau( 221) = (  -0.0140167   0.2836527  -0.2351918  )
       222           H   tau( 222) = (  -0.0673846   0.2593467  -0.2531977  )
       223           O   tau( 223) = (  -0.3637744   0.0216218   0.1278497  )
       224           H   tau( 224) = (  -0.3784143   0.0457023   0.1030178  )
       225           H   tau( 225) = (  -0.3262786   0.0228615   0.1258962  )
       226           O   tau( 226) = (  -0.2716973  -0.2595345  -0.2454814  )
       227           H   tau( 227) = (  -0.2919122  -0.2474717  -0.2747575  )
       228           H   tau( 228) = (  -0.2912209  -0.2855197  -0.2266377  )
       229           O   tau( 229) = (  -0.3688459   0.1114448   0.0730016  )
       230           H   tau( 230) = (  -0.3322781   0.1194091   0.0696957  )
       231           H   tau( 231) = (  -0.3857324   0.1161783   0.0397923  )
       232           O   tau( 232) = (   0.0187757  -0.2061103  -0.3016067  )
       233           H   tau( 233) = (   0.0248991  -0.2001033  -0.3381821  )
       234           H   tau( 234) = (  -0.0038134  -0.2358334  -0.2974105  )
       235           O   tau( 235) = (  -0.0531203   0.1321819   0.1807066  )
       236           H   tau( 236) = (  -0.0160904   0.1346613   0.1864920  )
       237           H   tau( 237) = (  -0.0696574   0.1179439   0.2112863  )
       238           O   tau( 238) = (   0.0794842   0.1460817  -0.2271411  )
       239           H   tau( 239) = (   0.1015361   0.1409350  -0.1971513  )
       240           H   tau( 240) = (   0.0822266   0.1163286  -0.2499369  )
       241           O   tau( 241) = (  -0.3156058   0.1178688  -0.0363714  )
       242           H   tau( 242) = (  -0.3137424   0.1552106  -0.0399215  )
       243           H   tau( 243) = (  -0.3515463   0.1069743  -0.0373444  )
       244           O   tau( 244) = (  -0.0499346   0.0428096  -0.1050441  )
       245           H   tau( 245) = (  -0.0446414   0.0756809  -0.0876731  )
       246           H   tau( 246) = (  -0.0735306   0.0475431  -0.1338882  )
       247           O   tau( 247) = (   0.2609711   0.2406007  -0.1922525  )
       248           H   tau( 248) = (   0.2353879   0.2347027  -0.2191055  )
       249           H   tau( 249) = (   0.2862538   0.2128386  -0.1926996  )
       250           O   tau( 250) = (  -0.0105643  -0.4056632   0.1151520  )
       251           H   tau( 251) = (  -0.0385781  -0.3846219   0.1015902  )
       252           H   tau( 252) = (  -0.0246745  -0.4325388   0.1372790  )
       253           O   tau( 253) = (   0.2645400   0.1079887   0.2654581  )
       254           H   tau( 254) = (   0.2879068   0.0825181   0.2507694  )
       255           H   tau( 255) = (   0.2710391   0.1111443   0.3023115  )
       256           O   tau( 256) = (  -0.0064281  -0.2193001   0.2062147  )
       257           H   tau( 257) = (  -0.0438826  -0.2220613   0.2053507  )
       258           H   tau( 258) = (   0.0061907  -0.2305590   0.2397622  )
       259           O   tau( 259) = (   0.1835828   0.1044949   0.0707852  )
       260           H   tau( 260) = (   0.1607795   0.1324073   0.0602288  )
       261           H   tau( 261) = (   0.2148762   0.1188456   0.0857744  )
       262           O   tau( 262) = (   0.1821928  -0.1761805  -0.0753623  )
       263           H   tau( 263) = (   0.1528904  -0.1900766  -0.0942812  )
       264           H   tau( 264) = (   0.1735148  -0.1735847  -0.0389109  )
       265           O   tau( 265) = (   0.2738942   0.1916131   0.2068534  )
       266           H   tau( 266) = (   0.2660051   0.1588921   0.2234956  )
       267           H   tau( 267) = (   0.3054506   0.2058511   0.2214670  )
       268           O   tau( 268) = (   0.1510496  -0.0637721  -0.0022642  )
       269           H   tau( 269) = (   0.1178778  -0.0552444  -0.0176968  )
       270           H   tau( 270) = (   0.1596901  -0.0994835  -0.0100932  )
       271           O   tau( 271) = (   0.3330625   0.0111781  -0.1043078  )
       272           H   tau( 272) = (   0.2986885   0.0000958  -0.0940182  )
       273           H   tau( 273) = (   0.3509444  -0.0173504  -0.1210027  )
       274           O   tau( 274) = (   0.2074379   0.2732090   0.1944938  )
       275           H   tau( 275) = (   0.2325328   0.2477385   0.2060645  )
       276           H   tau( 276) = (   0.1827563   0.2568297   0.1713900  )
       277           O   tau( 277) = (  -0.2848796   0.0743285   0.3060682  )
       278           H   tau( 278) = (  -0.3151362   0.0520887   0.3066317  )
       279           H   tau( 279) = (  -0.2668323   0.0718115   0.3389019  )
       280           O   tau( 280) = (  -0.0266956  -0.1383730   0.0630463  )
       281           H   tau( 281) = (  -0.0388448  -0.1096529   0.0421214  )
       282           H   tau( 282) = (  -0.0087648  -0.1631072   0.0411822  )
       283           O   tau( 283) = (   0.2027420  -0.3108137  -0.1321488  )
       284           H   tau( 284) = (   0.1758815  -0.2852906  -0.1258751  )
       285           H   tau( 285) = (   0.2299031  -0.3069894  -0.1064792  )
       286           O   tau( 286) = (  -0.2105605   0.1779011  -0.0757944  )
       287           H   tau( 287) = (  -0.2480488   0.1758349  -0.0770904  )
       288           H   tau( 288) = (  -0.1962850   0.1673072  -0.1088948  )
       289           O   tau( 289) = (   0.2880195  -0.1671043  -0.0476190  )
       290           H   tau( 290) = (   0.2535704  -0.1820598  -0.0482539  )
       291           H   tau( 291) = (   0.2941429  -0.1511759  -0.0141542  )
       292           O   tau( 292) = (  -0.2054514   0.1949190   0.0246527  )
       293           H   tau( 293) = (  -0.2058834   0.1839119  -0.0112765  )
       294           H   tau( 294) = (  -0.1699429   0.2002536   0.0356974  )
       295           O   tau( 295) = (   0.2315185  -0.1702449   0.0914095  )
       296           H   tau( 296) = (   0.2210748  -0.1481367   0.1199230  )
       297           H   tau( 297) = (   0.2625865  -0.1891224   0.1009516  )
       298           O   tau( 298) = (   0.2171302   0.2916169  -0.1139476  )
       299           H   tau( 299) = (   0.2398959   0.2809854  -0.0860126  )
       300           H   tau( 300) = (   0.2300533   0.2780176  -0.1464957  )
       301           O   tau( 301) = (   0.3264507   0.1895469  -0.1243198  )
       302           H   tau( 302) = (   0.3090195   0.2199012  -0.1106755  )
       303           H   tau( 303) = (   0.3010928   0.1628367  -0.1317243  )
       304           O   tau( 304) = (   0.1132195   0.0269187  -0.0964413  )
       305           H   tau( 305) = (   0.1487580   0.0201567  -0.1065055  )
       306           H   tau( 306) = (   0.1123555   0.0390905  -0.0609103  )
       307           O   tau( 307) = (  -0.3737672  -0.1956028   0.0433611  )
       308           H   tau( 308) = (  -0.3695447  -0.2148146   0.0753683  )
       309           H   tau( 309) = (  -0.3430486  -0.1997314   0.0221357  )
       310           O   tau( 310) = (   0.1335809  -0.3740129   0.0291607  )
       311           H   tau( 311) = (   0.1334682  -0.3778523  -0.0081923  )
       312           H   tau( 312) = (   0.1440997  -0.4063958   0.0450517  )
       313           O   tau( 313) = (  -0.1613813  -0.0351384   0.3387141  )
       314           H   tau( 314) = (  -0.1637068  -0.0717927   0.3308250  )
       315           H   tau( 315) = (  -0.1254371  -0.0258030   0.3443491  )
       316           O   tau( 316) = (   0.2628495  -0.0165878   0.2397998  )
       317           H   tau( 317) = (   0.2388816   0.0069330   0.2566299  )
       318           H   tau( 318) = (   0.2607457  -0.0120797   0.2025332  )
       319           O   tau( 319) = (   0.2897100   0.1221139   0.0985473  )
       320           H   tau( 320) = (   0.2849014   0.1497258   0.1236046  )
       321           H   tau( 321) = (   0.3026706   0.1365397   0.0663898  )
       322           O   tau( 322) = (  -0.1371205   0.0324787   0.0621071  )
       323           H   tau( 323) = (  -0.1400657   0.0111405   0.0928746  )
       324           H   tau( 324) = (  -0.1714418   0.0417578   0.0499730  )
       325           O   tau( 325) = (   0.0110369  -0.2391243   0.3053920  )
       326           H   tau( 326) = (   0.0426308  -0.2279556   0.3224099  )
       327           H   tau( 327) = (   0.0139295  -0.2754517   0.2962256  )
       328           O   tau( 328) = (  -0.0637105  -0.0744374  -0.3812716  )
       329           H   tau( 329) = (  -0.0829674  -0.0839044  -0.4121105  )
       330           H   tau( 330) = (  -0.0277663  -0.0845618  -0.3853552  )
       331           O   tau( 331) = (  -0.0302983   0.2895883   0.3199305  )
       332           H   tau( 332) = (  -0.0413055   0.3102126   0.2905530  )
       333           H   tau( 333) = (  -0.0175255   0.3122037   0.3470540  )
       334           O   tau( 334) = (   0.2986134  -0.1180116   0.0401304  )
       335           H   tau( 335) = (   0.3226564  -0.0987396   0.0616188  )
       336           H   tau( 336) = (   0.2697618  -0.1298039   0.0611304  )
       337           O   tau( 337) = (  -0.2719189  -0.1190822  -0.0832402  )
       338           H   tau( 338) = (  -0.2347312  -0.1139280  -0.0818502  )
       339           H   tau( 339) = (  -0.2792783  -0.1546658  -0.0927785  )
       340           O   tau( 340) = (  -0.1727755  -0.1110654  -0.0405338  )
       341           H   tau( 341) = (  -0.1777832  -0.1032514  -0.0041313  )
       342           H   tau( 342) = (  -0.1611372  -0.0801814  -0.0584797  )
       343           O   tau( 343) = (   0.3309211   0.2909407   0.0870517  )
       344           H   tau( 344) = (   0.3550393   0.2700158   0.0672163  )
       345           H   tau( 345) = (   0.2973737   0.2741106   0.0877279  )
       346           O   tau( 346) = (  -0.2571250   0.3034130   0.1686476  )
       347           H   tau( 347) = (  -0.2650855   0.3259533   0.1976494  )
       348           H   tau( 348) = (  -0.2440103   0.3239622   0.1400590  )
       349           O   tau( 349) = (   0.0385736  -0.0566081  -0.3645017  )
       350           H   tau( 350) = (   0.0708813  -0.0683140  -0.3797201  )
       351           H   tau( 351) = (   0.0344788  -0.0720106  -0.3304846  )
       352           O   tau( 352) = (  -0.0380334  -0.0714884   0.1454687  )
       353           H   tau( 353) = (  -0.0348402  -0.1000207   0.1212378  )
       354           H   tau( 354) = (  -0.0308956  -0.0837391   0.1802558  )
       355           O   tau( 355) = (   0.1727634   0.3625437   0.1530196  )
       356           H   tau( 356) = (   0.1870765   0.3323397   0.1702254  )
       357           H   tau( 357) = (   0.1695702   0.3556689   0.1162414  )
       358           O   tau( 358) = (   0.1765953  -0.0033979   0.0716492  )
       359           H   tau( 359) = (   0.1706221   0.0332676   0.0660141  )
       360           H   tau( 360) = (   0.1626203  -0.0229366   0.0427976  )
       361           O   tau( 361) = (   0.0807615   0.2535989   0.0410695  )
       362           H   tau( 362) = (   0.0872606   0.2467993   0.0047045  )
       363           H   tau( 363) = (   0.0615271   0.2856437   0.0446008  )
       364           O   tau( 364) = (   0.0958635   0.1478098   0.0489586  )
       365           H   tau( 365) = (   0.0706184   0.1329708   0.0724757  )
       366           H   tau( 366) = (   0.0875987   0.1839119   0.0428352  )
       367           O   tau( 367) = (  -0.0291487   0.3950393  -0.1506882  )
       368           H   tau( 368) = (  -0.0536726   0.4042056  -0.1776201  )
       369           H   tau( 369) = (  -0.0465874   0.3748281  -0.1242297  )
       370           O   tau( 370) = (   0.3593970   0.0526147  -0.0182039  )
       371           H   tau( 371) = (   0.3548139   0.0428848  -0.0542045  )
       372           H   tau( 372) = (   0.3921932   0.0704215  -0.0140978  )
       373           O   tau( 373) = (   0.1802769  -0.2277678  -0.3154052  )
       374           H   tau( 374) = (   0.1698332  -0.2564465  -0.2934998  )
       375           H   tau( 375) = (   0.1655505  -0.2321932  -0.3496852  )
       376           O   tau( 376) = (  -0.1156771  -0.2322120   0.0196563  )
       377           H   tau( 377) = (  -0.0889970  -0.2118318   0.0027886  )
       378           H   tau( 378) = (  -0.1087498  -0.2338574   0.0565472  )
       379           O   tau( 379) = (  -0.3606601   0.1696739   0.1598193  )
       380           H   tau( 380) = (  -0.3382700   0.1472463   0.1799929  )
       381           H   tau( 381) = (  -0.3557237   0.1626864   0.1232665  )
       382           O   tau( 382) = (   0.2791160   0.1315057  -0.2607900  )
       383           H   tau( 383) = (   0.3002288   0.1328205  -0.2918430  )
       384           H   tau( 384) = (   0.2469961   0.1501014  -0.2666806  )
       385           O   tau( 385) = (  -0.1957666  -0.0955652  -0.3194286  )
       386           H   tau( 386) = (  -0.1588380  -0.0970529  -0.3126966  )
       387           H   tau( 387) = (  -0.2144825  -0.0965833  -0.2868692  )
       388           O   tau( 388) = (  -0.4187689   0.0943893  -0.0223776  )
       389           H   tau( 389) = (  -0.4442132   0.1212499  -0.0290007  )
       390           H   tau( 390) = (  -0.4356140   0.0608419  -0.0226744  )
       391           O   tau( 391) = (   0.0692284  -0.0733367   0.4386803  )
       392           H   tau( 392) = (   0.0417668  -0.0483132   0.4330076  )
       393           H   tau( 393) = (   0.0727597  -0.0951257   0.4082884  )
       394           O   tau( 394) = (   0.3089444   0.1428134  -0.0113967  )
       395           H   tau( 395) = (   0.3271269   0.1103930  -0.0060810  )
       396           H   tau( 396) = (   0.3095079   0.1516417  -0.0479083  )
       397           O   tau( 397) = (  -0.2109061  -0.3281697  -0.1942173  )
       398           H   tau( 398) = (  -0.2285477  -0.3068955  -0.2196615  )
       399           H   tau( 399) = (  -0.2167253  -0.3140520  -0.1598922  )
       400           O   tau( 400) = (   0.3918551  -0.0680473  -0.1393129  )
       401           H   tau( 401) = (   0.4096619  -0.0433581  -0.1613197  )
       402           H   tau( 402) = (   0.4166118  -0.0844829  -0.1163331  )
       403           O   tau( 403) = (  -0.0865401  -0.3560971  -0.1551174  )
       404           H   tau( 404) = (  -0.0535373  -0.3396765  -0.1478782  )
       405           H   tau( 405) = (  -0.1094598  -0.3313704  -0.1716883  )
       406           O   tau( 406) = (  -0.1787637  -0.0910947   0.0658263  )
       407           H   tau( 407) = (  -0.2143548  -0.1015008   0.0718370  )
       408           H   tau( 408) = (  -0.1690488  -0.0647000   0.0907333  )
       409           O   tau( 409) = (  -0.0242725  -0.2618900   0.1042951  )
       410           H   tau( 410) = (  -0.0205083  -0.2369905   0.1321699  )
       411           H   tau( 411) = (   0.0085199  -0.2656768   0.0863755  )
       412           O   tau( 412) = (   0.1321533  -0.2389891  -0.1486145  )
       413           H   tau( 413) = (   0.1000710  -0.2541174  -0.1610154  )
       414           H   tau( 414) = (   0.1456024  -0.2152504  -0.1744344  )
       415           O   tau( 415) = (  -0.2527296  -0.2710864   0.1102307  )
       416           H   tau( 416) = (  -0.2896619  -0.2748882   0.1159409  )
       417           H   tau( 417) = (  -0.2375600  -0.3047954   0.1035061  )
       418           O   tau( 418) = (   0.1498850  -0.0712517  -0.2461614  )
       419           H   tau( 419) = (   0.1175773  -0.0898888  -0.2506882  )
       420           H   tau( 420) = (   0.1537920  -0.0460893  -0.2737808  )
       421           O   tau( 421) = (   0.0116379   0.4128461   0.1321699  )
       422           H   tau( 422) = (  -0.0095387   0.4084883   0.1628998  )
       423           H   tau( 423) = (   0.0076558   0.4478211   0.1190965  )
       424           O   tau( 424) = (  -0.0699053  -0.1970228   0.3526515  )
       425           H   tau( 425) = (  -0.0370829  -0.2077445   0.3378500  )
       426           H   tau( 426) = (  -0.0752324  -0.2146380   0.3854100  )
       427           O   tau( 427) = (  -0.1941399  -0.2745539   0.1908122  )
       428           H   tau( 428) = (  -0.2029945  -0.2723863   0.1543721  )
       429           H   tau( 429) = (  -0.1999177  -0.2412018   0.2071163  )
       430           O   tau( 430) = (   0.2971483  -0.2264304   0.1734562  )
       431           H   tau( 431) = (   0.2953826  -0.2313291   0.2106852  )
       432           H   tau( 432) = (   0.3314471  -0.2144051   0.1640268  )
       433           O   tau( 433) = (  -0.0057031   0.0560709   0.3268804  )
       434           H   tau( 434) = (  -0.0218231   0.0898437   0.3232740  )
       435           H   tau( 435) = (   0.0316237   0.0600905   0.3280450  )
       436           O   tau( 436) = (   0.2170175   0.0180529  -0.1124712  )
       437           H   tau( 437) = (   0.2231410  -0.0078271  -0.1390048  )
       438           H   tau( 438) = (   0.2149514   0.0012979  -0.0789012  )
       439           O   tau( 439) = (  -0.0439164   0.1362392  -0.0676385  )
       440           H   tau( 440) = (  -0.0556035   0.1543465  -0.0984023  )
       441           H   tau( 441) = (  -0.0104703   0.1497258  -0.0571160  )
       442           O   tau( 442) = (  -0.2367598   0.2033717   0.1678962  )
       443           H   tau( 443) = (  -0.2462606   0.2397367   0.1683095  )
       444           H   tau( 444) = (  -0.1994331   0.2001784   0.1706386  )
       445           O   tau( 445) = (   0.1747545  -0.1835888  -0.2237751  )
       446           H   tau( 446) = (   0.1756185  -0.1954337  -0.2594151  )
       447           H   tau( 447) = (   0.1581498  -0.1499436  -0.2221447  )
       448           O   tau( 448) = (   0.0102479   0.3069819  -0.1818990  )
       449           H   tau( 449) = (   0.0448473   0.3029246  -0.1678189  )
       450           H   tau( 450) = (  -0.0070705   0.3354578  -0.1645956  )
       451           O   tau( 451) = (  -0.0858939  -0.3432642   0.0896814  )
       452           H   tau( 452) = (  -0.1122923  -0.3407698   0.0630839  )
       453           H   tau( 453) = (  -0.0669901  -0.3108588   0.0916349  )
       454           O   tau( 454) = (  -0.1481615  -0.0021207   0.2419787  )
       455           H   tau( 455) = (  -0.1495327  -0.0152429   0.2771415  )
       456           H   tau( 456) = (  -0.1123186   0.0025001   0.2317228  )
       457           O   tau( 457) = (   0.3154059  -0.3214001   0.0314899  )
       458           H   tau( 458) = (   0.2813325  -0.3145028   0.0457279  )
       459           H   tau( 459) = (   0.3208532  -0.3585127   0.0294237  )
       460           O   tau( 460) = (   0.0235843   0.1353751   0.4005496  )
       461           H   tau( 461) = (   0.0543893   0.1286130   0.3801131  )
       462           H   tau( 462) = (  -0.0031635   0.1498385   0.3784977  )
       463           O   tau( 463) = (  -0.2966419   0.2315470  -0.2007164  )
       464           H   tau( 464) = (  -0.2653184   0.2164075  -0.2149018  )
       465           H   tau( 465) = (  -0.2964428   0.2686258  -0.2066858  )
       466           O   tau( 466) = (  -0.1019013  -0.1953924   0.2017818  )
       467           H   tau( 467) = (  -0.1096439  -0.1868308   0.1660179  )
       468           H   tau( 468) = (  -0.1339160  -0.1978643   0.2212792  )
       469           O   tau( 469) = (  -0.0720128  -0.0145404  -0.2900774  )
       470           H   tau( 470) = (  -0.0695785  -0.0346501  -0.3217164  )
       471           H   tau( 471) = (  -0.0918558   0.0167005  -0.2965878  )
       472           O   tau( 472) = (  -0.1470006   0.2632161  -0.0629239  )
       473           H   tau( 473) = (  -0.1370378   0.2655829  -0.0267767  )
       474           H   tau( 474) = (  -0.1682486   0.2326740  -0.0680968  )
       475           O   tau( 475) = (   0.1259923   0.2402250   0.1336726  )
       476           H   tau( 476) = (   0.1134073   0.2455596   0.0986975  )
       477           H   tau( 477) = (   0.0969529   0.2396615   0.1574901  )
       478           O   tau( 478) = (  -0.2666182  -0.1921579   0.0518137  )
       479           H   tau( 479) = (  -0.2617044  -0.2201003   0.0764202  )
       480           H   tau( 480) = (  -0.2500849  -0.2010838   0.0192806  )
       481           O   tau( 481) = (  -0.1667046   0.3856475   0.0193182  )
       482           H   tau( 482) = (  -0.1537026   0.4207728   0.0165006  )
       483           H   tau( 483) = (  -0.1383339   0.3623934   0.0274702  )
       484           O   tau( 484) = (  -0.0031034  -0.3244731  -0.0008178  )
       485           H   tau( 485) = (   0.0213303  -0.2969627   0.0067332  )
       486           H   tau( 486) = (  -0.0365344  -0.3095590  -0.0092404  )
       487           O   tau( 487) = (   0.2319693  -0.0552857  -0.1806518  )
       488           H   tau( 488) = (   0.2498512  -0.0881570  -0.1839427  )
       489           H   tau( 489) = (   0.2205113  -0.0438240  -0.2145411  )
       490           O   tau( 490) = (  -0.0499647   0.3607029   0.0006097  )
       491           H   tau( 491) = (  -0.0619674   0.3569462   0.0359980  )
       492           H   tau( 492) = (  -0.0372820   0.3956779  -0.0046797  )
       493           O   tau( 493) = (  -0.0509189  -0.0311488   0.3578358  )
       494           H   tau( 494) = (  -0.0252004  -0.0585127   0.3568214  )
       495           H   tau( 495) = (  -0.0355051   0.0009598   0.3458518  )
       496           O   tau( 496) = (   0.3738604  -0.0638510   0.0834077  )
       497           H   tau( 497) = (   0.3695026  -0.0268699   0.0883666  )
       498           H   tau( 498) = (   0.4042147  -0.0701285   0.0621447  )
       499           O   tau( 499) = (   0.0656595   0.4027030  -0.1313449  )
       500           H   tau( 500) = (   0.0847436   0.3946636  -0.1626872  )
       501           H   tau( 501) = (   0.0288437   0.4029659  -0.1388320  )
       502           O   tau( 502) = (  -0.0153729   0.1937545  -0.1635775  )
       503           H   tau( 503) = (   0.0194519   0.1797795  -0.1650389  )
       504           H   tau( 504) = (  -0.0137237   0.2311713  -0.1605045  )
       505           O   tau( 505) = (   0.1197562   0.2363932  -0.0616353  )
       506           H   tau( 506) = (   0.1152481   0.2615256  -0.0892021  )
       507           H   tau( 507) = (   0.1518385   0.2434182  -0.0434227  )
       508           O   tau( 508) = (   0.0093088   0.0655378  -0.2686228  )
       509           H   tau( 509) = (  -0.0168530   0.0440494  -0.2849495  )
       510           H   tau( 510) = (   0.0007284   0.0702712  -0.2323555  )
       511           O   tau( 511) = (  -0.2909918  -0.0932849   0.0801018  )
       512           H   tau( 512) = (  -0.3215827  -0.0876836   0.1011770  )
       513           H   tau( 513) = (  -0.2859127  -0.1301495   0.0749551  )
       514           O   tau( 514) = (   0.0857579  -0.2169860  -0.0487460  )
       515           H   tau( 515) = (   0.0995451  -0.2476107  -0.0655723  )
       516           H   tau( 516) = (   0.0961265  -0.2167944  -0.0126402  )
       517           O   tau( 517) = (   0.0763286  -0.2783144   0.0607172  )
       518           H   tau( 518) = (   0.1037150  -0.2610072   0.0797637  )
       519           H   tau( 519) = (   0.0904162  -0.3083080   0.0430230  )
       520           O   tau( 520) = (   0.1777974   0.3554059   0.0456903  )
       521           H   tau( 521) = (   0.1981213   0.3707333   0.0180409  )
       522           H   tau( 522) = (   0.1419959   0.3524381   0.0347583  )
       523           O   tau( 523) = (  -0.2512307  -0.0063169  -0.2630516  )
       524           H   tau( 524) = (  -0.2739325  -0.0313329  -0.2466235  )
       525           H   tau( 525) = (  -0.2234385  -0.0243567  -0.2807532  )
       526           O   tau( 526) = (   0.1230997  -0.3541549  -0.0740212  )
       527           H   tau( 527) = (   0.1513877  -0.3453755  -0.0971137  )
       528           H   tau( 528) = (   0.1126560  -0.3897536  -0.0799643  )
       529           O   tau( 529) = (  -0.0850261   0.3455258   0.0896439  )
       530           H   tau( 530) = (  -0.0675424   0.3170874   0.1068496  )
       531           H   tau( 531) = (  -0.0906537   0.3734381   0.1141752  )
       532           O   tau( 532) = (   0.2201732   0.1779387  -0.3454927  )
       533           H   tau( 533) = (   0.2516169   0.1976239  -0.3513231  )
       534           H   tau( 534) = (   0.2102930   0.1604324  -0.3772369  )
       535           O   tau( 535) = (   0.0495056   0.2555524   0.2032845  )
       536           H   tau( 536) = (   0.0499189   0.2369943   0.2359304  )
       537           H   tau( 537) = (   0.0373339   0.2906401   0.2089571  )
       538           O   tau( 538) = (  -0.0325711   0.3184023   0.2174473  )
       539           H   tau( 539) = (  -0.0447579   0.3530016   0.2092952  )
       540           H   tau( 540) = (  -0.0619674   0.2952985   0.2209786  )
       541           O   tau( 541) = (  -0.0744923  -0.2437714  -0.0879135  )
       542           H   tau( 542) = (  -0.1110263  -0.2503156  -0.0937402  )
       543           H   tau( 543) = (  -0.0618209  -0.2196345  -0.1137597  )
       544           O   tau( 544) = (  -0.0415346   0.0230493   0.2311218  )
       545           H   tau( 545) = (  -0.0179988   0.0395413   0.2552774  )
       546           H   tau( 546) = (  -0.0217893   0.0039652   0.2054634  )
       547           O   tau( 547) = (  -0.1032875  -0.3711804   0.1904741  )
       548           H   tau( 548) = (  -0.1124351  -0.3389139   0.2074169  )
       549           H   tau( 549) = (  -0.0970326  -0.3648428   0.1539964  )
       550           O   tau( 550) = (  -0.1225970   0.0703088  -0.3216826  )
       551           H   tau( 551) = (  -0.1181716   0.0719242  -0.3589530  )
       552           H   tau( 552) = (  -0.1430260   0.0996863  -0.3102209  )
       553           O   tau( 553) = (  -0.2041177  -0.2056595  -0.0252177  )
       554           H   tau( 554) = (  -0.1721819  -0.2187742  -0.0104087  )
       555           H   tau( 555) = (  -0.2033739  -0.1680999  -0.0253266  )
       556           O   tau( 556) = (   0.0980048   0.0784609   0.3492329  )
       557           H   tau( 557) = (   0.1230997   0.0566719   0.3667767  )
       558           H   tau( 558) = (   0.1159243   0.1019028   0.3259412  )
       559           O   tau( 559) = (   0.0042935   0.0334930   0.4445783  )
       560           H   tau( 560) = (  -0.0024986   0.0430726   0.4802671  )
       561           H   tau( 561) = (  -0.0025023   0.0629081   0.4221883  )
       562           O   tau( 562) = (   0.2701375  -0.2241914  -0.2139325  )
       563           H   tau( 563) = (   0.2354630  -0.2106785  -0.2089436  )
       564           H   tau( 564) = (   0.2923397  -0.2122788  -0.1860727  )
       565           O   tau( 565) = (   0.1343698  -0.0952534  -0.1361047  )
       566           H   tau( 566) = (   0.1505613  -0.0747718  -0.1631267  )
       567           H   tau( 567) = (   0.1602160  -0.1170461  -0.1197367  )
       568           O   tau( 568) = (  -0.0831816   0.1363519  -0.2377313  )
       569           H   tau( 569) = (  -0.0750971   0.1710263  -0.2257361  )
       570           H   tau( 570) = (  -0.0658631   0.1300406  -0.2704673  )
       571           O   tau( 571) = (  -0.1938619  -0.1797945   0.2511450  )
       572           H   tau( 572) = (  -0.1933097  -0.1632462   0.2848803  )
       573           H   tau( 573) = (  -0.2206060  -0.1641027   0.2299196  )
       574           O   tau( 574) = (   0.0324126   0.3409050   0.0726259  )
       575           H   tau( 575) = (   0.0245235   0.3699820   0.0950160  )
       576           H   tau( 576) = (   0.0122766   0.3436098   0.0410320  )
       577           O   tau( 577) = (   0.3304703   0.0309009   0.0864507  )
       578           H   tau( 578) = (   0.3282163   0.0312765   0.0489586  )
       579           H   tau( 579) = (   0.3193505   0.0641478   0.0999748  )
       580           O   tau( 580) = (   0.1692697   0.0112908  -0.3099842  )
       581           H   tau( 581) = (   0.1403806   0.0344697  -0.3163180  )
       582           H   tau( 582) = (   0.2014272   0.0306003  -0.3117010  )
       583           O   tau( 583) = (  -0.2407006  -0.0461080   0.2006548  )
       584           H   tau( 584) = (  -0.2511668  -0.0267159   0.1702254  )
       585           H   tau( 585) = (  -0.2176607  -0.0250817   0.2215797  )
       586           O   tau( 586) = (  -0.2771220   0.0499098  -0.1179184  )
       587           H   tau( 587) = (  -0.2947109   0.0610297  -0.0866513  )
       588           H   tau( 588) = (  -0.2826068   0.0130565  -0.1229111  )
       589           O   tau( 589) = (  -0.1595443  -0.0048405  -0.0675972  )
       590           H   tau( 590) = (  -0.1253544   0.0106897  -0.0667144  )
       591           H   tau( 591) = (  -0.1838653   0.0192550  -0.0830335  )
       592           O   tau( 592) = (  -0.2653334  -0.0723750   0.3519001  )
       593           H   tau( 593) = (  -0.2321954  -0.0581183   0.3414189  )
       594           H   tau( 594) = (  -0.2600815  -0.0972069   0.3795871  )
       595           O   tau( 595) = (  -0.3524253   0.0841711  -0.1785743  )
       596           H   tau( 596) = (  -0.3699354   0.0517506  -0.1858210  )
       597           H   tau( 597) = (  -0.3201702   0.0772587  -0.1606022  )
       598           O   tau( 598) = (  -0.3204144  -0.0509166  -0.1344742  )
       599           H   tau( 599) = (  -0.3038811  -0.0797156  -0.1169116  )
       600           H   tau( 600) = (  -0.3545967  -0.0453342  -0.1199282  )
       601           O   tau( 601) = (   0.1397419  -0.0628329  -0.3846226  )
       602           H   tau( 602) = (   0.1536418  -0.0343307  -0.3644754  )
       603           H   tau( 603) = (   0.1657759  -0.0897160  -0.3878910  )
       604           O   tau( 604) = (   0.1463537  -0.2380499   0.1408479  )
       605           H   tau( 605) = (   0.1498099  -0.2416037   0.1780769  )
       606           H   tau( 606) = (   0.1802769  -0.2400860   0.1248443  )
       607           O   tau( 607) = (   0.2192716   0.2167456  -0.0068849  )
       608           H   tau( 608) = (   0.2188959   0.2378959   0.0241643  )
       609           H   tau( 609) = (   0.2543217   0.2049119  -0.0135118  )
       610           O   tau( 610) = (  -0.0139566  -0.2075754  -0.0106229  )
       611           H   tau( 611) = (  -0.0361475  -0.2214602  -0.0375660  )
       612           H   tau( 612) = (   0.0217059  -0.2076994  -0.0224678  )
       613           O   tau( 613) = (  -0.2311623   0.0509617   0.0205579  )
       614           H   tau( 614) = (  -0.2476393   0.0769582  -0.0009681  )
       615           H   tau( 615) = (  -0.2442808   0.0169634   0.0113539  )
       616           O   tau( 616) = (   0.2328709  -0.1803317   0.2732721  )
       617           H   tau( 617) = (   0.2493629  -0.1578403   0.2984797  )
       618           H   tau( 618) = (   0.2236294  -0.1603760   0.2428427  )
       619           O   tau( 619) = (  -0.2765622   0.1589297   0.0884417  )
       620           H   tau( 620) = (  -0.2645633   0.1717777   0.1216511  )
       621           H   tau( 621) = (  -0.2519783   0.1685093   0.0616939  )
       622           O   tau( 622) = (   0.0932713   0.0535539  -0.0030155  )
       623           H   tau( 623) = (   0.1051050   0.0843213   0.0149979  )
       624           H   tau( 624) = (   0.0630674   0.0396164   0.0144720  )
       625           O   tau( 625) = (  -0.0281156  -0.1557290  -0.1293313  )
       626           H   tau( 626) = (  -0.0315530  -0.1196082  -0.1195977  )
       627           H   tau( 627) = (   0.0082569  -0.1651546  -0.1298572  )
       628           O   tau( 628) = (  -0.1518055  -0.3416451  -0.0014940  )
       629           H   tau( 629) = (  -0.1578463  -0.3098783  -0.0206082  )
       630           H   tau( 630) = (  -0.1743420  -0.3426594   0.0285597  )
       631           O   tau( 631) = (   0.0520602  -0.3261298   0.2495672  )
       632           H   tau( 632) = (   0.0614520  -0.3284740   0.2132774  )
       633           H   tau( 633) = (   0.0397006  -0.3595383   0.2614760  )
       634           O   tau( 634) = (   0.0194519  -0.3468669  -0.1048488  )
       635           H   tau( 635) = (  -0.0055490  -0.3531556  -0.0775224  )
       636           H   tau( 636) = (   0.0522856  -0.3367275  -0.0896867  )
       637           O   tau( 637) = (   0.1377509  -0.0408336   0.1640644  )
       638           H   tau( 638) = (   0.1617187  -0.0353601   0.1356261  )
       639           H   tau( 639) = (   0.1024753  -0.0384293   0.1513291  )
       640           O   tau( 640) = (  -0.0148244  -0.0709399  -0.2174451  )
       641           H   tau( 641) = (  -0.0341452  -0.0511270  -0.2428480  )
       642           H   tau( 642) = (   0.0052891  -0.0475656  -0.1960055  )
       643           O   tau( 643) = (  -0.1038923   0.2165202   0.0465543  )
       644           H   tau( 644) = (  -0.0779409   0.2358297   0.0656385  )
       645           H   tau( 645) = (  -0.0897708   0.1831981   0.0364112  )
       646           O   tau( 646) = (   0.1223108   0.0697077   0.1686851  )
       647           H   tau( 647) = (   0.1391408   0.0785360   0.1363023  )
       648           H   tau( 648) = (   0.1052177   0.0364232   0.1652665  )
       649           O   tau( 649) = (   0.3583076  -0.2343683  -0.0032597  )
       650           H   tau( 650) = (   0.3479015  -0.2687009   0.0078977  )
       651           H   tau( 651) = (   0.3323111  -0.2203032  -0.0264537  )
       652           O   tau( 652) = (   0.0744126  -0.1564916   0.1698122  )
       653           H   tau( 653) = (   0.0980424  -0.1855160   0.1665438  )
       654           H   tau( 654) = (   0.0403392  -0.1690991   0.1793167  )
       655           O   tau( 655) = (  -0.2218194   0.2250479  -0.2752496  )
       656           H   tau( 656) = (  -0.2478572   0.2386472  -0.2986652  )
       657           H   tau( 657) = (  -0.1896807   0.2439066  -0.2799343  )
       658           O   tau( 658) = (   0.1161497   0.2888369  -0.1619433  )
       659           H   tau( 659) = (   0.1125809   0.2969514  -0.1984436  )
       660           H   tau( 660) = (   0.1522893   0.2914666  -0.1520256  )
       661           O   tau( 661) = (   0.2428262  -0.0294357  -0.0243912  )
       662           H   tau( 662) = (   0.2101428  -0.0448909  -0.0142143  )
       663           H   tau( 663) = (   0.2690856  -0.0377719   0.0011357  )
       664           O   tau( 664) = (   0.0701300  -0.0901405   0.2570055  )
       665           H   tau( 665) = (   0.0826398  -0.1111706   0.2285296  )
       666           H   tau( 666) = (   0.0850066  -0.0557290   0.2546764  )
       667           O   tau( 667) = (  -0.1774300  -0.1609921  -0.1455002  )
       668           H   tau( 668) = (  -0.1466400  -0.1617059  -0.1670112  )
       669           H   tau( 669) = (  -0.1676776  -0.1539784  -0.1099053  )
       670           O   tau( 670) = (   0.0735862  -0.1006330   0.0775848  )
       671           H   tau( 671) = (   0.0369206  -0.1024851   0.0696206  )
       672           H   tau( 672) = (   0.0794091  -0.1124028   0.1127852  )
       673           O   tau( 673) = (   0.2051088   0.3818908  -0.0579049  )
       674           H   tau( 674) = (   0.1679924   0.3825670  -0.0635512  )
       675           H   tau( 675) = (   0.2216383   0.3623934  -0.0854341  )
       676           O   tau( 676) = (  -0.1418765  -0.4155209  -0.0751407  )
       677           H   tau( 677) = (  -0.1512457  -0.3897986  -0.0494109  )
       678           H   tau( 678) = (  -0.1132165  -0.4027180  -0.0957838  )
       679           O   tau( 679) = (   0.0671622  -0.0679721  -0.0648172  )
       680           H   tau( 680) = (   0.0761407  -0.0334968  -0.0767410  )
       681           H   tau( 681) = (   0.0881622  -0.0933375  -0.0829133  )
       682           O   tau( 682) = (   0.0040381   0.1182069   0.0849855  )
       683           H   tau( 683) = (  -0.0088850   0.1118956   0.1196976  )
       684           H   tau( 684) = (  -0.0248210   0.1250066   0.0619193  )
       685           O   tau( 685) = (  -0.2758710   0.1120835   0.2044866  )
       686           H   tau( 686) = (  -0.2734930   0.1046076   0.2412273  )
       687           H   tau( 687) = (  -0.2527897   0.1404842   0.1959589  )
       688           O   tau( 688) = (   0.0903035   0.3705830  -0.0303306  )
       689           H   tau( 689) = (   0.0723840   0.3705455  -0.0633446  )
       690           H   tau( 690) = (   0.0687400   0.3871126  -0.0043980  )
       691           O   tau( 691) = (  -0.2164322   0.0694072  -0.2003332  )
       692           H   tau( 692) = (  -0.2348251   0.0467166  -0.2239780  )
       693           H   tau( 693) = (  -0.2360498   0.0728258  -0.1684800  )
       694           O   tau( 694) = (  -0.1207750   0.2674612   0.2195886  )
       695           H   tau( 695) = (  -0.1287843   0.2436436   0.1916762  )
       696           H   tau( 696) = (  -0.1318498   0.2526598   0.2523096  )
       697           O   tau( 697) = (   0.0888760   0.0786487  -0.3314088  )
       698           H   tau( 698) = (   0.0882373   0.1003625  -0.3620711  )
       699           H   tau( 699) = (   0.0537883   0.0733893  -0.3190529  )
       700           O   tau( 700) = (  -0.0438300  -0.1074477   0.2441576  )
       701           H   tau( 701) = (  -0.0213010  -0.1015196   0.2736478  )
       702           H   tau( 702) = (  -0.0645144  -0.1382227   0.2502059  )
       703           O   tau( 703) = (   0.3597727  -0.0878940   0.2496424  )
       704           H   tau( 704) = (   0.3229945  -0.0803505   0.2487783  )
       705           H   tau( 705) = (   0.3752128  -0.0715034   0.2796961  )
       706           O   tau( 706) = (   0.2769372   0.0268812  -0.2871659  )
       707           H   tau( 707) = (   0.3078173   0.0113659  -0.2724509  )
       708           H   tau( 708) = (   0.2781017   0.0641102  -0.2822972  )
       709           O   tau( 709) = (   0.3246474  -0.1408524  -0.2740775  )
       710           H   tau( 710) = (   0.3613881  -0.1487490  -0.2743142  )
       711           H   tau( 711) = (   0.3068782  -0.1646775  -0.2511127  )

   Crystallographic axes

     site n.     atom                  positions (cryst. coord.)
         1           O   tau(   1) = ( -0.2969837  0.3065310 -0.0887438  )
         2           H   tau(   2) = ( -0.3045047  0.2699406 -0.0927634  )
         3           H   tau(   3) = ( -0.3172024  0.3204309 -0.0602904  )
         4           O   tau(   4) = ( -0.1854469  0.2977403 -0.1627961  )
         5           H   tau(   5) = ( -0.1772272  0.3118656 -0.1289744  )
         6           H   tau(   6) = ( -0.1936628  0.2612251 -0.1594414  )
         7           O   tau(   7) = (  0.3665348 -0.0457512 -0.2616315  )
         8           H   tau(   8) = (  0.3457226 -0.0768455 -0.2583707  )
         9           H   tau(   9) = (  0.3896762 -0.0430388 -0.2321639  )
        10           O   tau(  10) = (  0.1551820  0.1163661  0.2511075  )
        11           H   tau(  11) = (  0.1924862  0.1207615  0.2504688  )
        12           H   tau(  12) = (  0.1433859  0.1046076  0.2174473  )
        13           O   tau(  13) = ( -0.1348477  0.1913502  0.1445670  )
        14           H   tau(  14) = ( -0.1163158  0.1612964  0.1574150  )
        15           H   tau(  15) = ( -0.1274131  0.1959709  0.1080518  )
        16           O   tau(  16) = (  0.2988388  0.3054416 -0.0446024  )
        17           H   tau(  17) = (  0.3200267  0.3313254 -0.0616729  )
        18           H   tau(  18) = (  0.2992145  0.3114148 -0.0075161  )
        19           O   tau(  19) = ( -0.1989147  0.3733630 -0.0799230  )
        20           H   tau(  20) = ( -0.1794511  0.3741895 -0.0478068  )
        21           H   tau(  21) = ( -0.2198208  0.3421823 -0.0810876  )
        22           O   tau(  22) = (  0.3226188 -0.1744412 -0.1458571  )
        23           H   tau(  23) = (  0.3429051 -0.1429186 -0.1480848  )
        24           H   tau(  24) = (  0.3036850 -0.1748845 -0.1133991  )
        25           O   tau(  25) = (  0.0474394  0.1167418  0.2123757  )
        26           H   tau(  26) = (  0.0722337  0.1296649  0.2374330  )
        27           H   tau(  27) = (  0.0654341  0.0969815  0.1860036  )
        28           O   tau(  28) = (  0.0011079  0.1496882 -0.4064078  )
        29           H   tau(  29) = (  0.0048007  0.1644521 -0.3720527  )
        30           H   tau(  30) = ( -0.0020854  0.1123840 -0.4037406  )
        31           O   tau(  31) = ( -0.1823363  0.1607329 -0.1839840  )
        32           H   tau(  32) = ( -0.1967583  0.1272230 -0.1929400  )
        33           H   tau(  33) = ( -0.1475942  0.1635505 -0.1980003  )
        34           O   tau(  34) = (  0.0005631  0.0346951 -0.3964638  )
        35           H   tau(  35) = (  0.0140798  0.0037398 -0.3800244  )
        36           H   tau(  36) = ( -0.0343443  0.0411567 -0.3841869  )
        37           O   tau(  37) = ( -0.3411815  0.2045362  0.0251411  )
        38           H   tau(  38) = ( -0.3196856  0.1813197  0.0454273  )
        39           H   tau(  39) = ( -0.3378192  0.2395113  0.0384023  )
        40           O   tau(  40) = (  0.1825685  0.2078046 -0.2568831  )
        41           H   tau(  41) = (  0.1789245  0.1998403 -0.2934171  )
        42           H   tau(  42) = (  0.1614933  0.1840997 -0.2367395  )
        43           O   tau(  43) = ( -0.1211544 -0.2728070 -0.2207510  )
        44           H   tau(  44) = ( -0.1229840 -0.2357883 -0.2268932  )
        45           H   tau(  45) = ( -0.1557087 -0.2861997 -0.2145862  )
        46           O   tau(  46) = ( -0.2563173  0.0386021  0.1180446  )
        47           H   tau(  47) = ( -0.2525906  0.0713231  0.1361520  )
        48           H   tau(  48) = ( -0.2477595  0.0433356  0.0817548  )
        49           O   tau(  49) = (  0.0067166  0.1768492 -0.3104651  )
        50           H   tau(  50) = (  0.0295199  0.1605827 -0.2854303  )
        51           H   tau(  51) = ( -0.0043431  0.2102840 -0.2974518  )
        52           O   tau(  52) = (  0.1421838  0.1065611 -0.1645167  )
        53           H   tau(  53) = (  0.1762572  0.1072749 -0.1486521  )
        54           H   tau(  54) = (  0.1217472  0.0790619 -0.1490804  )
        55           O   tau(  55) = (  0.0607758 -0.1175194 -0.2627773  )
        56           H   tau(  56) = (  0.0277542 -0.1095665 -0.2467024  )
        57           H   tau(  57) = (  0.0622033 -0.1541474 -0.2709970  )
        58           O   tau(  58) = ( -0.1610395 -0.1351835  0.3537785  )
        59           H   tau(  59) = ( -0.1780499 -0.1456572  0.3855979  )
        60           H   tau(  60) = ( -0.1272441 -0.1514538  0.3517123  )
        61           O   tau(  61) = ( -0.0752586  0.1086273  0.0289729  )
        62           H   tau(  62) = ( -0.0656903  0.1094162 -0.0073620  )
        63           H   tau(  63) = ( -0.1015594  0.0823303  0.0343826  )
        64           O   tau(  64) = (  0.1291855  0.0015985  0.2524975  )
        65           H   tau(  65) = (  0.1350085 -0.0134922  0.2186119  )
        66           H   tau(  66) = (  0.1279083  0.0390154  0.2495297  )
        67           O   tau(  67) = (  0.2912127 -0.3057647 -0.0769214  )
        68           H   tau(  68) = (  0.3163827 -0.3023724 -0.1046159  )
        69           H   tau(  69) = (  0.3090195 -0.3135185 -0.0447451  )
        70           O   tau(  70) = (  0.0458992  0.1774879 -0.0380957  )
        71           H   tau(  71) = (  0.0603250  0.1553233 -0.0114306  )
        72           H   tau(  72) = (  0.0733232  0.1979995 -0.0535358  )
        73           O   tau(  73) = (  0.0827901 -0.1302998  0.3509985  )
        74           H   tau(  74) = (  0.1165254 -0.1456572  0.3449127  )
        75           H   tau(  75) = (  0.0723840 -0.1106033  0.3207570  )
        76           O   tau(  76) = (  0.3778050  0.0978080 -0.1472095  )
        77           H   tau(  77) = (  0.3634167  0.0658007 -0.1338018  )
        78           H   tau(  78) = (  0.3553774  0.1264717 -0.1379041  )
        79           O   tau(  79) = ( -0.3139979 -0.2240862 -0.1145036  )
        80           H   tau(  80) = ( -0.3388110 -0.2304876 -0.1419764  )
        81           H   tau(  81) = ( -0.3209403 -0.2472163 -0.0857234  )
        82           O   tau(  82) = ( -0.1165938  0.1007758  0.2676746  )
        83           H   tau(  83) = ( -0.1135659  0.0925486  0.3041899  )
        84           H   tau(  84) = ( -0.1298249  0.0709099  0.2491164  )
        85           O   tau(  85) = (  0.2174308 -0.1176434  0.1871682  )
        86           H   tau(  86) = (  0.1830193 -0.1026316  0.1860412  )
        87           H   tau(  87) = (  0.2424129 -0.0927101  0.1742827  )
        88           O   tau(  88) = ( -0.2105605 -0.3748619  0.0828442  )
        89           H   tau(  89) = ( -0.2083891 -0.3955690  0.1141001  )
        90           H   tau(  90) = ( -0.2383489 -0.3878301  0.0611304  )
        91           O   tau(  91) = ( -0.3208276  0.1103930 -0.2818840  )
        92           H   tau(  92) = ( -0.3393407  0.1381175 -0.2991762  )
        93           H   tau(  93) = ( -0.3260832  0.1130602 -0.2447827  )
        94           O   tau(  94) = ( -0.0239983 -0.4313066 -0.0199733  )
        95           H   tau(  95) = ( -0.0208276 -0.4054454  0.0071088  )
        96           H   tau(  96) = (  0.0082569 -0.4503682 -0.0229148  )
        97           O   tau(  97) = ( -0.2698452 -0.1363857  0.2015188  )
        98           H   tau(  98) = ( -0.3014054 -0.1392708  0.1813453  )
        99           H   tau(  99) = ( -0.2596833 -0.1002874  0.2037729  )
       100           O   tau( 100) = (  0.2029299 -0.2948890  0.0192806  )
       101           H   tau( 101) = (  0.1799388 -0.3242665  0.0237135  )
       102           H   tau( 102) = (  0.2212626 -0.2981836 -0.0133502  )
       103           O   tau( 103) = (  0.0288437  0.0016360 -0.1560265  )
       104           H   tau( 104) = (  0.0606255  0.0067452 -0.1366907  )
       105           H   tau( 105) = (  0.0004316  0.0185037 -0.1381333  )
       106           O   tau( 106) = ( -0.3748116 -0.1147770  0.1864544  )
       107           H   tau( 107) = ( -0.3650704 -0.1036647  0.2209786  )
       108           H   tau( 108) = ( -0.4045385 -0.1376479  0.1885582  )
       109           O   tau( 109) = ( -0.0023746  0.0266558  0.0446008  )
       110           H   tau( 110) = ( -0.0205872 -0.0055844  0.0382520  )
       111           H   tau( 111) = ( -0.0272591  0.0539295  0.0514381  )
       112           O   tau( 112) = ( -0.0436985 -0.2804144 -0.2792430  )
       113           H   tau( 113) = ( -0.0747290 -0.2788967 -0.2581228  )
       114           H   tau( 114) = ( -0.0363691 -0.3161595 -0.2881802  )
       115           O   tau( 115) = ( -0.0403174 -0.0606052 -0.0859037  )
       116           H   tau( 116) = ( -0.0035730 -0.0555449 -0.0799455  )
       117           H   tau( 117) = ( -0.0546756 -0.0300143 -0.1023130  )
       118           O   tau( 118) = (  0.0326755  0.0014482  0.1386690  )
       119           H   tau( 119) = (  0.0293321  0.0188794  0.1055723  )
       120           H   tau( 120) = (  0.0085574 -0.0273057  0.1401717  )
       121           O   tau( 121) = ( -0.1013303  0.0844341 -0.4166674  )
       122           H   tau( 122) = ( -0.1096852  0.1181318 -0.4310481  )
       123           H   tau( 123) = ( -0.0960821  0.0598651 -0.4445911  )
       124           O   tau( 124) = ( -0.0678805 -0.0604286  0.0147725  )
       125           H   tau( 125) = ( -0.1015970 -0.0468406  0.0242395  )
       126           H   tau( 126) = ( -0.0632334 -0.0575998 -0.0224152  )
       127           O   tau( 127) = ( -0.0238818  0.2618637  0.1072253  )
       128           H   tau( 128) = ( -0.0129160  0.2511195  0.1415241  )
       129           H   tau( 129) = ( -0.0029644  0.2909782  0.0959551  )
       130           O   tau( 130) = ( -0.3109287  0.2085935 -0.1011597  )
       131           H   tau( 131) = ( -0.3467790  0.1986758 -0.0958815  )
       132           H   tau( 132) = ( -0.3048278  0.2144915 -0.1377576  )
       133           O   tau( 133) = (  0.0542391 -0.2887355 -0.2046534  )
       134           H   tau( 134) = (  0.0357185 -0.2707746 -0.2319835  )
       135           H   tau( 135) = (  0.0300083 -0.3091870 -0.1844987  )
       136           O   tau( 136) = ( -0.0888918  0.3402664 -0.0921811  )
       137           H   tau( 137) = ( -0.0716071  0.3463147 -0.0593813  )
       138           H   tau( 138) = ( -0.1036218  0.3057046 -0.0923915  )
       139           O   tau( 139) = ( -0.1316244 -0.0359649  0.1359266  )
       140           H   tau( 140) = ( -0.1444310 -0.0278091  0.1703005  )
       141           H   tau( 141) = ( -0.0953946 -0.0456685  0.1380679  )
       142           O   tau( 142) = ( -0.0437624  0.1586292  0.3255280  )
       143           H   tau( 143) = ( -0.0178110  0.1834986  0.3145584  )
       144           H   tau( 144) = ( -0.0779823  0.1719279  0.3175638  )
       145           O   tau( 145) = ( -0.1019651  0.0695950  0.3760183  )
       146           H   tau( 146) = ( -0.0709760  0.0484447  0.3742150  )
       147           H   tau( 147) = ( -0.1106281  0.0760566  0.4120076  )
       148           O   tau( 148) = ( -0.2870360 -0.0434220 -0.0080608  )
       149           H   tau( 149) = ( -0.2862621 -0.0613528  0.0249532  )
       150           H   tau( 150) = ( -0.2912134 -0.0684154 -0.0357966  )
       151           O   tau( 151) = (  0.0597990 -0.3466077  0.1485492  )
       152           H   tau( 152) = (  0.0303839 -0.3673635  0.1378801  )
       153           H   tau( 153) = (  0.0613768 -0.3154157  0.1276994  )
       154           O   tau( 154) = ( -0.1178297  0.0569349 -0.1802536  )
       155           H   tau( 155) = ( -0.1544765  0.0563338 -0.1884808  )
       156           H   tau( 156) = ( -0.0984676  0.0688061 -0.2101683  )
       157           O   tau( 157) = (  0.1545809 -0.2443349  0.2420538  )
       158           H   tau( 158) = (  0.1481194 -0.2705304  0.2682005  )
       159           H   tau( 159) = (  0.1815917 -0.2211259  0.2540002  )
       160           O   tau( 160) = ( -0.2278414 -0.1628179 -0.2309467  )
       161           H   tau( 161) = ( -0.2391566 -0.1982325 -0.2363564  )
       162           H   tau( 162) = ( -0.2093020 -0.1604362 -0.1983609  )
       163           O   tau( 163) = ( -0.3909692 -0.0287107 -0.0606210  )
       164           H   tau( 164) = ( -0.3600740 -0.0304200 -0.0393129  )
       165           H   tau( 165) = ( -0.4196743 -0.0159003 -0.0400530  )
       166           O   tau( 166) = (  0.2145757  0.2606616  0.0819050  )
       167           H   tau( 167) = (  0.1847849  0.2494665  0.1019283  )
       168           H   tau( 168) = (  0.2116454  0.2973647  0.0746170  )
       169           O   tau( 169) = ( -0.2039675 -0.2653199 -0.1104613  )
       170           H   tau( 170) = ( -0.1950490 -0.2358823 -0.1320286  )
       171           H   tau( 171) = ( -0.2163571 -0.2531406 -0.0771505  )
       172           O   tau( 172) = (  0.2628119  0.1097167 -0.1419464  )
       173           H   tau( 173) = (  0.2449299  0.0806773 -0.1262245  )
       174           H   tau( 174) = (  0.2747207  0.1000244 -0.1762226  )
       175           O   tau( 175) = ( -0.1135095 -0.1685394  0.1019659  )
       176           H   tau( 176) = ( -0.1397464 -0.1455821  0.0879533  )
       177           H   tau( 177) = ( -0.0802250 -0.1603648  0.0865634  )
       178           O   tau( 178) = (  0.4028998  0.1380048  0.1071502  )
       179           H   tau( 179) = (  0.3900518  0.1273357  0.1408103  )
       180           H   tau( 180) = (  0.4144705  0.1078008  0.0880285  )
       181           O   tau( 181) = ( -0.1002370 -0.1584827 -0.2166073  )
       182           H   tau( 182) = ( -0.1048052 -0.1620027 -0.2537274  )
       183           H   tau( 183) = ( -0.0699467 -0.1373699 -0.2096649  )
       184           O   tau( 184) = ( -0.1486311  0.1963466  0.2912668  )
       185           H   tau( 185) = ( -0.1396149  0.1653161  0.2721451  )
       186           H   tau( 186) = ( -0.1754690  0.1883072  0.3162865  )
       187           O   tau( 187) = ( -0.1195804 -0.2871088  0.2558034  )
       188           H   tau( 188) = ( -0.1473049 -0.2800312  0.2314599  )
       189           H   tau( 189) = ( -0.0972242 -0.2570288  0.2583955  )
       190           O   tau( 190) = ( -0.1381348  0.2773789 -0.2550949  )
       191           H   tau( 191) = ( -0.1325410  0.3040892 -0.2809335  )
       192           H   tau( 192) = ( -0.1627300  0.2897010 -0.2295041  )
       193           O   tau( 193) = ( -0.2172024  0.1303787 -0.3128168  )
       194           H   tau( 194) = ( -0.2136260  0.1619727 -0.2928235  )
       195           H   tau( 195) = ( -0.2520910  0.1170048 -0.3089511  )
       196           O   tau( 196) = (  0.3730339  0.1174931  0.2132774  )
       197           H   tau( 197) = (  0.3765652  0.1526936  0.2259375  )
       198           H   tau( 198) = (  0.3779552  0.0934126  0.2416781  )
       199           O   tau( 199) = (  0.1331677 -0.3159041 -0.2758883  )
       200           H   tau( 200) = (  0.1374503 -0.3530993 -0.2789538  )
       201           H   tau( 201) = (  0.1200943 -0.3075904 -0.2416684  )
       202           O   tau( 202) = (  0.0502570  0.2265130  0.3150843  )
       203           H   tau( 203) = (  0.0827901  0.2271517  0.3337928  )
       204           H   tau( 204) = (  0.0273034  0.2528100  0.3289842  )
       205           O   tau( 205) = (  0.1537169 -0.1621229  0.0212716  )
       206           H   tau( 206) = (  0.1795255 -0.1635655  0.0485078  )
       207           H   tau( 207) = (  0.1230245 -0.1446016  0.0340069  )
       208           O   tau( 208) = (  0.2520677 -0.0034355  0.1429892  )
       209           H   tau( 209) = (  0.2235918 -0.0008058  0.1186457  )
       210           H   tau( 210) = (  0.2823844  0.0135824  0.1286761  )
       211           O   tau( 211) = ( -0.1055115 -0.1640238 -0.3185796  )
       212           H   tau( 212) = ( -0.0843274 -0.1466603 -0.3442868  )
       213           H   tau( 213) = ( -0.1032650 -0.2011965 -0.3235347  )
       214           O   tau( 214) = (  0.1872268 -0.0081277  0.3294726  )
       215           H   tau( 215) = (  0.1758064 -0.0348567  0.3532526  )
       216           H   tau( 216) = (  0.1647241 -0.0076881  0.2993813  )
       217           O   tau( 217) = ( -0.3215076 -0.0735396 -0.2291961  )
       218           H   tau( 218) = ( -0.3576509 -0.0733593 -0.2394369  )
       219           H   tau( 219) = ( -0.3190357 -0.0696702 -0.1919107  )
       220           O   tau( 220) = ( -0.0321691  0.2671982 -0.2636677  )
       221           H   tau( 221) = ( -0.0140167  0.2836527 -0.2351918  )
       222           H   tau( 222) = ( -0.0673846  0.2593467 -0.2531977  )
       223           O   tau( 223) = ( -0.3637744  0.0216218  0.1278497  )
       224           H   tau( 224) = ( -0.3784143  0.0457023  0.1030178  )
       225           H   tau( 225) = ( -0.3262786  0.0228615  0.1258962  )
       226           O   tau( 226) = ( -0.2716973 -0.2595345 -0.2454814  )
       227           H   tau( 227) = ( -0.2919122 -0.2474717 -0.2747575  )
       228           H   tau( 228) = ( -0.2912209 -0.2855197 -0.2266377  )
       229           O   tau( 229) = ( -0.3688459  0.1114448  0.0730016  )
       230           H   tau( 230) = ( -0.3322781  0.1194091  0.0696957  )
       231           H   tau( 231) = ( -0.3857324  0.1161783  0.0397923  )
       232           O   tau( 232) = (  0.0187757 -0.2061103 -0.3016067  )
       233           H   tau( 233) = (  0.0248991 -0.2001033 -0.3381821  )
       234           H   tau( 234) = ( -0.0038134 -0.2358334 -0.2974105  )
       235           O   tau( 235) = ( -0.0531203  0.1321819  0.1807066  )
       236           H   tau( 236) = ( -0.0160904  0.1346613  0.1864920  )
       237           H   tau( 237) = ( -0.0696574  0.1179439  0.2112863  )
       238           O   tau( 238) = (  0.0794842  0.1460817 -0.2271411  )
       239           H   tau( 239) = (  0.1015361  0.1409350 -0.1971513  )
       240           H   tau( 240) = (  0.0822266  0.1163286 -0.2499369  )
       241           O   tau( 241) = ( -0.3156058  0.1178688 -0.0363714  )
       242           H   tau( 242) = ( -0.3137424  0.1552106 -0.0399215  )
       243           H   tau( 243) = ( -0.3515463  0.1069743 -0.0373444  )
       244           O   tau( 244) = ( -0.0499346  0.0428096 -0.1050441  )
       245           H   tau( 245) = ( -0.0446414  0.0756809 -0.0876731  )
       246           H   tau( 246) = ( -0.0735306  0.0475431 -0.1338882  )
       247           O   tau( 247) = (  0.2609711  0.2406007 -0.1922525  )
       248           H   tau( 248) = (  0.2353879  0.2347027 -0.2191055  )
       249           H   tau( 249) = (  0.2862538  0.2128386 -0.1926996  )
       250           O   tau( 250) = ( -0.0105643 -0.4056632  0.1151520  )
       251           H   tau( 251) = ( -0.0385781 -0.3846219  0.1015902  )
       252           H   tau( 252) = ( -0.0246745 -0.4325388  0.1372790  )
       253           O   tau( 253) = (  0.2645400  0.1079887  0.2654581  )
       254           H   tau( 254) = (  0.2879068  0.0825181  0.2507694  )
[...]
        249778 MiB available memory on the node where the printing process lives
     GPU memory used/free/total (MiB): 9132 / 7028 / 16160
------------------
     ethr =  1.00E-13,  avg # of iterations =  3.0

     negative rho (up, down):  1.618E-02 0.000E+00

     total cpu time spent up to now is      185.2 secs

     total energy              =  -10441.96652088 Ry
     estimated scf accuracy    <          4.0E-10 Ry
[tb_dev] Currently allocated     5.88E+03 Mbytes, locked:    0 /  14
[tb_pin] Currently allocated     1.08E+01 Mbytes, locked:    0 /   1

     iteration # 21     ecut=    60.00 Ry     beta= 0.70
     Davidson diagonalization with overlap

---- Real-time Memory Report at c_bands before calling an iterative solver
          3325 MiB given to the printing process from OS
         -1276 MiB allocation reported by mallinfo(arena+hblkhd)
        249727 MiB available memory on the node where the printing process lives
     GPU memory used/free/total (MiB): 9132 / 7028 / 16160
------------------
     ethr =  1.00E-13,  avg # of iterations =  2.0

     negative rho (up, down):  1.618E-02 0.000E+00

     total cpu time spent up to now is      192.1 secs

     End of self-consistent calculation

          k = 0.0000 0.0000 0.0000 (499257 PWs)   bands (ev):

   -25.8013 -25.3352 -25.3189 -25.2925 -25.1543 -25.1321 -24.9633 -24.8989
   -24.8178 -24.6850 -24.6733 -24.6095 -24.6054 -24.5880 -24.5452 -24.4939
   -24.3883 -24.3576 -24.3499 -24.3480 -24.3443 -24.3301 -24.3177 -24.2767
   -24.2691 -24.2466 -24.2340 -24.2208 -24.2026 -24.1954 -24.1822 -24.1734
   -24.1590 -24.1501 -24.1480 -24.1383 -24.1219 -24.1185 -24.0898 -24.0792
   -24.0625 -24.0465 -24.0190 -24.0163 -24.0135 -24.0075 -24.0039 -23.9711
   -23.9681 -23.9499 -23.9190 -23.8976 -23.8948 -23.8903 -23.8837 -23.8750
   -23.8639 -23.8532 -23.8340 -23.8181 -23.8150 -23.8064 -23.8046 -23.8007
   -23.7828 -23.7759 -23.7637 -23.7590 -23.7565 -23.7487 -23.7239 -23.7204
   -23.7167 -23.7093 -23.6928 -23.6901 -23.6679 -23.6620 -23.6453 -23.6262
   -23.6137 -23.6106 -23.6103 -23.6086 -23.6025 -23.5998 -23.5947 -23.5882
   -23.5660 -23.5519 -23.5392 -23.5357 -23.5323 -23.5186 -23.5139 -23.5009
   -23.4885 -23.4784 -23.4609 -23.4561 -23.4536 -23.4494 -23.4439 -23.4316
   -23.4291 -23.4252 -23.4230 -23.4021 -23.3987 -23.3873 -23.3667 -23.3591
   -23.3532 -23.3432 -23.3286 -23.3162 -23.3083 -23.2893 -23.2830 -23.2714
   -23.2661 -23.2655 -23.2644 -23.2527 -23.2480 -23.2447 -23.2407 -23.2354
   -23.2070 -23.1939 -23.1883 -23.1812 -23.1686 -23.1597 -23.1506 -23.1467
   -23.1321 -23.1256 -23.1161 -23.1061 -23.0721 -23.0690 -23.0652 -23.0606
   -23.0587 -23.0525 -23.0479 -23.0452 -23.0155 -23.0111 -23.0019 -22.9909
   -22.9891 -22.9824 -22.9775 -22.9752 -22.9693 -22.9639 -22.9443 -22.9440
   -22.9369 -22.9090 -22.9038 -22.9013 -22.8903 -22.8835 -22.8696 -22.8583
   -22.8532 -22.8492 -22.8462 -22.8350 -22.8316 -22.8299 -22.8258 -22.8042
   -22.7878 -22.7798 -22.7667 -22.7627 -22.7607 -22.7418 -22.7412 -22.7373
   -22.7082 -22.7055 -22.6994 -22.6810 -22.6732 -22.6682 -22.6561 -22.6436
   -22.6367 -22.6019 -22.6011 -22.5805 -22.5778 -22.5571 -22.5409 -22.4909
   -22.4878 -22.4858 -22.4669 -22.4363 -22.4325 -22.4281 -22.3514 -22.3303
   -22.3236 -22.3108 -22.3035 -22.2926 -22.2787 -22.2668 -22.2433 -22.2293
   -22.2247 -22.2096 -22.2060 -22.1502 -22.1285 -22.1015 -22.0918 -22.0776
   -22.0529 -22.0513 -21.8458 -21.8135 -21.7193 -21.6894 -21.6493 -21.5472
   -21.2538 -21.2485 -21.2089 -21.0352 -20.7812 -13.8162 -13.4823 -13.4374
   -13.3936 -13.3030 -13.2093 -13.1822 -13.1587 -13.1024 -13.0036 -12.8935
   -12.8245 -12.7759 -12.7585 -12.6509 -12.6152 -12.5753 -12.5678 -12.5385
   -12.5199 -12.5188 -12.5181 -12.4962 -12.4846 -12.4752 -12.4641 -12.4588
   -12.4408 -12.4206 -12.3792 -12.3641 -12.3607 -12.3549 -12.3526 -12.3209
   -12.3165 -12.3157 -12.3077 -12.2968 -12.2855 -12.2679 -12.2565 -12.2398
   -12.2393 -12.2249 -12.2194 -12.1769 -12.1513 -12.1424 -12.1360 -12.1307
   -12.1196 -12.1037 -12.1034 -12.0917 -12.0866 -12.0833 -12.0691 -12.0514
   -12.0480 -12.0431 -12.0268 -12.0185 -12.0062 -11.9894 -11.9673 -11.9536
   -11.9432 -11.9395 -11.9308 -11.9032 -11.8947 -11.8824 -11.8815 -11.8744
   -11.8589 -11.8520 -11.8459 -11.8448 -11.8393 -11.8358 -11.8244 -11.8135
   -11.8120 -11.8070 -11.7915 -11.7633 -11.7560 -11.7506 -11.7501 -11.7362
   -11.7294 -11.7281 -11.7244 -11.7024 -11.6960 -11.6934 -11.6851 -11.6833
   -11.6710 -11.6677 -11.6601 -11.6598 -11.6504 -11.6468 -11.6366 -11.6253
   -11.6208 -11.6196 -11.6147 -11.6007 -11.5964 -11.5922 -11.5828 -11.5710
   -11.5672 -11.5582 -11.5506 -11.5432 -11.5222 -11.5149 -11.5009 -11.4849
   -11.4770 -11.4701 -11.4614 -11.4502 -11.4451 -11.4292 -11.4258 -11.4204
   -11.4168 -11.4120 -11.4030 -11.3987 -11.3774 -11.3719 -11.3655 -11.3606
   -11.3570 -11.3520 -11.3264 -11.3160 -11.3103 -11.3052 -11.2970 -11.2881
   -11.2735 -11.2692 -11.2649 -11.2634 -11.2581 -11.2402 -11.2268 -11.2209
   -11.2143 -11.2105 -11.2060 -11.2017 -11.1941 -11.1769 -11.1726 -11.1659
   -11.1429 -11.1339 -11.1270 -11.1042 -11.1027 -11.0918 -11.0855 -11.0729
   -11.0518 -11.0290 -11.0255 -11.0223 -11.0156 -10.9940 -10.9897 -10.9801
   -10.9771 -10.9674 -10.9596 -10.9487 -10.9414 -10.9357 -10.9205 -10.9104
   -10.8940 -10.8793 -10.8754 -10.8674 -10.8590 -10.8515 -10.8457 -10.8429
   -10.8423 -10.8328 -10.8248 -10.8173 -10.8085 -10.7728 -10.7608 -10.7582
   -10.7350 -10.7194 -10.7145 -10.6631 -10.6556 -10.6530 -10.6474 -10.6099
   -10.6048 -10.6002 -10.5928 -10.5873 -10.5668 -10.5345 -10.4937 -10.4859
   -10.4771 -10.4672 -10.4416 -10.4189 -10.3633 -10.3603 -10.3119 -10.2712
   -10.1936 -10.1549 -10.1438 -10.0960  -9.9942  -9.8959  -9.8551  -9.8055
    -9.7371  -9.6944  -9.6636  -9.6057  -9.5761  -9.4603  -9.4168  -9.3804
    -9.2984  -9.2747  -9.2514  -9.2332  -9.1892  -9.1835  -9.1671  -9.1636
    -9.1500  -9.1416  -9.1083  -9.0869  -9.0464  -9.0436  -9.0135  -8.9873
    -8.9700  -8.9635  -8.9513  -8.9013  -8.8784  -8.8683  -8.8667  -8.8458
    -8.8205  -8.7965  -8.7871  -8.7707  -8.7597  -8.7360  -8.7213  -8.7149
    -8.6916  -8.6730  -8.6658  -8.6542  -8.6265  -8.6130  -8.6069  -8.5941
    -8.5914  -8.5668  -8.5616  -8.5320  -8.5144  -8.5049  -8.4997  -8.4945
    -8.4838  -8.4632  -8.4496  -8.4415  -8.4229  -8.4131  -8.4094  -8.3810
    -8.3694  -8.3602  -8.3526  -8.3317  -8.3252  -8.3084  -8.3035  -8.2877
    -8.2833  -8.2787  -8.2693  -8.2503  -8.2417  -8.2288  -8.2231  -8.2196
    -8.2028  -8.1901  -8.1832  -8.1699  -8.1550  -8.1490  -8.1398  -8.1367
    -8.1203  -8.1170  -8.1076  -8.0807  -8.0674  -8.0613  -8.0599  -8.0351
    -8.0326  -8.0248  -8.0150  -8.0007  -7.9860  -7.9750  -7.9701  -7.9541
    -7.9490  -7.9374  -7.9292  -7.9163  -7.8981  -7.8914  -7.8734  -7.8512
    -7.8406  -7.8214  -7.8149  -7.8004  -7.7913  -7.7750  -7.7716  -7.7407
    -7.7312  -7.7193  -7.7119  -7.6976  -7.6945  -7.6851  -7.6732  -7.6573
    -7.6486  -7.6238  -7.6118  -7.6064  -7.5950  -7.5870  -7.5787  -7.5628
    -7.5447  -7.5335  -7.5246  -7.5201  -7.4944  -7.4828  -7.4768  -7.4698
    -7.4611  -7.4544  -7.4465  -7.4406  -7.4208  -7.3974  -7.3839  -7.3637
    -7.3618  -7.3493  -7.3364  -7.3323  -7.3205  -7.3160  -7.2972  -7.2826
    -7.2783  -7.2725  -7.2635  -7.2546  -7.2502  -7.2330  -7.2280  -7.2090
    -7.1939  -7.1911  -7.1860  -7.1736  -7.1685  -7.1611  -7.1529  -7.1416
    -7.1311  -7.1249  -7.1203  -7.1018  -7.0848  -7.0808  -7.0761  -7.0721
    -7.0582  -7.0478  -7.0383  -7.0319  -7.0223  -7.0124  -7.0076  -7.0028
    -7.0018  -6.9920  -6.9796  -6.9737  -6.9640  -6.9571  -6.9508  -6.9427
    -6.9301  -6.9057  -6.8978  -6.8719  -6.8486  -6.8295  -6.8242  -6.8118
    -6.8011  -6.7914  -6.7891  -6.7754  -6.7574  -6.7474  -6.7370  -6.7292
    -6.7180  -6.7030  -6.6983  -6.6841  -6.6769  -6.6649  -6.6600  -6.6560
    -6.6453  -6.6267  -6.6038  -6.5949  -6.5835  -6.5806  -6.5488  -6.5415
    -6.5336  -6.5281  -6.5128  -6.5005  -6.4986  -6.4859  -6.4848  -6.4737
    -6.4678  -6.4606  -6.4556  -6.4489  -6.4452  -6.4120  -6.3982  -6.3975
    -6.3948  -6.3832  -6.3619  -6.3611  -6.3570  -6.3553  -6.3461  -6.3399
    -6.3364  -6.3331  -6.3267  -6.3151  -6.3091  -6.3041  -6.2974  -6.2855
    -6.2771  -6.2731  -6.2654  -6.2561  -6.2533  -6.2423  -6.2382  -6.2337
    -6.2133  -6.2089  -6.2064  -6.1950  -6.1870  -6.1721  -6.1641  -6.1527
    -6.1484  -6.1404  -6.1375  -6.1300  -6.1260  -6.1159  -6.1014  -6.0983
    -6.0919  -6.0831  -6.0773  -6.0742  -6.0663  -6.0531  -6.0502  -6.0462
    -6.0356  -6.0336  -6.0316  -6.0187  -6.0132  -6.0066  -6.0013  -5.9965
    -5.9896  -5.9876  -5.9841  -5.9723  -5.9603  -5.9554  -5.9472  -5.9395
    -5.9228  -5.9201  -5.9177  -5.9045  -5.8915  -5.8868  -5.8791  -5.8750
    -5.8706  -5.8587  -5.8497  -5.8362  -5.8311  -5.8268  -5.8194  -5.8002
    -5.7964  -5.7939  -5.7911  -5.7829  -5.7744  -5.7691  -5.7617  -5.7575
    -5.7561  -5.7480  -5.7403  -5.7359  -5.7317  -5.7263  -5.7213  -5.7085
    -5.7012  -5.6923  -5.6880  -5.6843  -5.6817  -5.6781  -5.6745  -5.6651
    -5.6538  -5.6477  -5.6406  -5.6346  -5.6273  -5.6138  -5.6089  -5.5995
    -5.5967  -5.5894  -5.5852  -5.5667  -5.5625  -5.5545  -5.5505  -5.5420
    -5.5342  -5.5330  -5.5252  -5.5085  -5.5052  -5.4960  -5.4927  -5.4860
    -5.4845  -5.4713  -5.4673  -5.4414  -5.4389  -5.4315  -5.4131  -5.3994
    -5.3934  -5.3833  -5.3784  -5.3753  -5.3678  -5.3584  -5.3561  -5.3531
    -5.3425  -5.3312  -5.3279  -5.3186  -5.2953  -5.2880  -5.2797  -5.2687
    -5.2561  -5.2528  -5.2496  -5.2442  -5.2365  -5.2281  -5.2269  -5.2197
    -5.2192  -5.2145  -5.2107  -5.2093  -5.1940  -5.1882  -5.1718  -5.1676
    -5.1580  -5.1530  -5.1460  -5.1366  -5.1350  -5.1310  -5.1215  -5.1195
    -5.0870  -5.0654  -5.0613  -5.0507  -5.0423  -5.0336  -5.0226  -5.0186
    -5.0075  -4.9786  -4.9630  -4.9553  -4.8840  -4.8630  -4.8522  -4.8517
    -4.8403  -4.8255  -4.8154  -4.7956  -4.7710  -4.7279  -4.7238  -4.7143
    -4.7111  -4.6997  -4.6744  -4.6663  -4.6616  -4.6305  -4.6238  -4.6230
    -4.6209  -4.6024  -4.5659  -4.5398  -4.5301  -4.4549  -4.3920  -4.3729
    -4.2740  -4.2357  -4.2329  -4.2188  -4.0982  -4.0373  -4.0355  -3.7523
    -3.6484  -3.6251  -3.5137  -3.1345

     occupation numbers 
     1.0000   1.0000   1.0000   1.0000   1.0000   1.0000   1.0000   1.0000
     1.0000   1.0000   1.0000   1.0000   1.0000   1.0000   1.0000   1.0000
     1.0000   1.0000   1.0000   1.0000   1.0000   1.0000   1.0000   1.0000
     1.0000   1.0000   1.0000   1.0000   1.0000   1.0000   1.0000   1.0000
     1.0000   1.0000   1.0000   1.0000   1.0000   1.0000   1.0000   1.0000
     1.0000   1.0000   1.0000   1.0000   1.0000   1.0000   1.0000   1.0000
     1.0000   1.0000   1.0000   1.0000   1.0000   1.0000   1.0000   1.0000
     1.0000   1.0000   1.0000   1.0000   1.0000   1.0000   1.0000   1.0000
     1.0000   1.0000   1.0000   1.0000   1.0000   1.0000   1.0000   1.0000
     1.0000   1.0000   1.0000   1.0000   1.0000   1.0000   1.0000   1.0000
     1.0000   1.0000   1.0000   1.0000   1.0000   1.0000   1.0000   1.0000
     1.0000   1.0000   1.0000   1.0000   1.0000   1.0000   1.0000   1.0000
     1.0000   1.0000   1.0000   1.0000   1.0000   1.0000   1.0000   1.0000
     1.0000   1.0000   1.0000   1.0000   1.0000   1.0000   1.0000   1.0000
     1.0000   1.0000   1.0000   1.0000   1.0000   1.0000   1.0000   1.0000
     1.0000   1.0000   1.0000   1.0000   1.0000   1.0000   1.0000   1.0000
     1.0000   1.0000   1.0000   1.0000   1.0000   1.0000   1.0000   1.0000
     1.0000   1.0000   1.0000   1.0000   1.0000   1.0000   1.0000   1.0000
     1.0000   1.0000   1.0000   1.0000   1.0000   1.0000   1.0000   1.0000
     1.0000   1.0000   1.0000   1.0000   1.0000   1.0000   1.0000   1.0000
     1.0000   1.0000   1.0000   1.0000   1.0000   1.0000   1.0000   1.0000
     1.0000   1.0000   1.0000   1.0000   1.0000   1.0000   1.0000   1.0000
     1.0000   1.0000   1.0000   1.0000   1.0000   1.0000   1.0000   1.0000
     1.0000   1.0000   1.0000   1.0000   1.0000   1.0000   1.0000   1.0000
     1.0000   1.0000   1.0000   1.0000   1.0000   1.0000   1.0000   1.0000
     1.0000   1.0000   1.0000   1.0000   1.0000   1.0000   1.0000   1.0000
     1.0000   1.0000   1.0000   1.0000   1.0000   1.0000   1.0000   1.0000
     1.0000   1.0000   1.0000   1.0000   1.0000   1.0000   1.0000   1.0000
     1.0000   1.0000   1.0000   1.0000   1.0000   1.0000   1.0000   1.0000
     1.0000   1.0000   1.0000   1.0000   1.0000   1.0000   1.0000   1.0000
     1.0000   1.0000   1.0000   1.0000   1.0000   1.0000   1.0000   1.0000
     1.0000   1.0000   1.0000   1.0000   1.0000   1.0000   1.0000   1.0000
     1.0000   1.0000   1.0000   1.0000   1.0000   1.0000   1.0000   1.0000
     1.0000   1.0000   1.0000   1.0000   1.0000   1.0000   1.0000   1.0000
     1.0000   1.0000   1.0000   1.0000   1.0000   1.0000   1.0000   1.0000
     1.0000   1.0000   1.0000   1.0000   1.0000   1.0000   1.0000   1.0000
     1.0000   1.0000   1.0000   1.0000   1.0000   1.0000   1.0000   1.0000
     1.0000   1.0000   1.0000   1.0000   1.0000   1.0000   1.0000   1.0000
     1.0000   1.0000   1.0000   1.0000   1.0000   1.0000   1.0000   1.0000
     1.0000   1.0000   1.0000   1.0000   1.0000   1.0000   1.0000   1.0000
     1.0000   1.0000   1.0000   1.0000   1.0000   1.0000   1.0000   1.0000
     1.0000   1.0000   1.0000   1.0000   1.0000   1.0000   1.0000   1.0000
     1.0000   1.0000   1.0000   1.0000   1.0000   1.0000   1.0000   1.0000
     1.0000   1.0000   1.0000   1.0000   1.0000   1.0000   1.0000   1.0000
     1.0000   1.0000   1.0000   1.0000   1.0000   1.0000   1.0000   1.0000
     1.0000   1.0000   1.0000   1.0000   1.0000   1.0000   1.0000   1.0000
     1.0000   1.0000   1.0000   1.0000   1.0000   1.0000   1.0000   1.0000
     1.0000   1.0000   1.0000   1.0000   1.0000   1.0000   1.0000   1.0000
     1.0000   1.0000   1.0000   1.0000   1.0000   1.0000   1.0000   1.0000
     1.0000   1.0000   1.0000   1.0000   1.0000   1.0000   1.0000   1.0000
     1.0000   1.0000   1.0000   1.0000   1.0000   1.0000   1.0000   1.0000
     1.0000   1.0000   1.0000   1.0000   1.0000   1.0000   1.0000   1.0000
     1.0000   1.0000   1.0000   1.0000   1.0000   1.0000   1.0000   1.0000
     1.0000   1.0000   1.0000   1.0000   1.0000   1.0000   1.0000   1.0000
     1.0000   1.0000   1.0000   1.0000   1.0000   1.0000   1.0000   1.0000
     1.0000   1.0000   1.0000   1.0000   1.0000   1.0000   1.0000   1.0000
     1.0000   1.0000   1.0000   1.0000   1.0000   1.0000   1.0000   1.0000
     1.0000   1.0000   1.0000   1.0000   1.0000   1.0000   1.0000   1.0000
     1.0000   1.0000   1.0000   1.0000   1.0000   1.0000   1.0000   1.0000
     1.0000   1.0000   1.0000   1.0000   1.0000   1.0000   1.0000   1.0000
     1.0000   1.0000   1.0000   1.0000   1.0000   1.0000   1.0000   1.0000
     1.0000   1.0000   1.0000   1.0000   1.0000   1.0000   1.0000   1.0000
     1.0000   1.0000   1.0000   1.0000   1.0000   1.0000   1.0000   1.0000
     1.0000   1.0000   1.0000   1.0000   1.0000   1.0000   1.0000   1.0000
     1.0000   1.0000   1.0000   1.0000   1.0000   1.0000   1.0000   1.0000
     1.0000   1.0000   1.0000   1.0000   1.0000   1.0000   1.0000   1.0000
     1.0000   1.0000   1.0000   1.0000   1.0000   1.0000   1.0000   1.0000
     1.0000   1.0000   1.0000   1.0000   1.0000   1.0000   1.0000   1.0000
     1.0000   1.0000   1.0000   1.0000   1.0000   1.0000   1.0000   1.0000
     1.0000   1.0000   1.0000   1.0000   1.0000   1.0000   1.0000   1.0000
     1.0000   1.0000   1.0000   1.0000   1.0000   1.0000   1.0000   1.0000
     1.0000   1.0000   1.0000   1.0000   1.0000   1.0000   1.0000   1.0000
     1.0000   1.0000   1.0000   1.0000   1.0000   1.0000   1.0000   1.0000
     1.0000   1.0000   1.0000   1.0000   1.0000   1.0000   1.0000   1.0000
     1.0000   1.0000   1.0000   1.0000   1.0000   1.0000   1.0000   1.0000
     1.0000   1.0000   1.0000   1.0000   1.0000   1.0000   1.0000   1.0000
     1.0000   1.0000   1.0000   1.0000   1.0000   1.0000   1.0000   1.0000
     1.0000   1.0000   1.0000   1.0000   1.0000   1.0000   1.0000   1.0000
     1.0000   1.0000   1.0000   1.0000   1.0000   1.0000   1.0000   1.0000
     1.0000   1.0000   1.0000   1.0000   1.0000   1.0000   1.0000   1.0000
     1.0000   1.0000   1.0000   1.0000   1.0000   1.0000   1.0000   1.0000
     1.0000   1.0000   1.0000   1.0000   1.0000   1.0000   1.0000   1.0000
     1.0000   1.0000   1.0000   1.0000   1.0000   1.0000   1.0000   1.0000
     1.0000   1.0000   1.0000   1.0000   1.0000   1.0000   1.0000   1.0000
     1.0000   1.0000   1.0000   1.0000   1.0000   1.0000   1.0000   1.0000
     1.0000   1.0000   1.0000   1.0000   1.0000   1.0000   1.0000   1.0000
     1.0000   1.0000   1.0000   1.0000   1.0000   1.0000   1.0000   1.0000
     1.0000   1.0000   1.0000   1.0000   1.0000   1.0000   1.0000   1.0000
     1.0000   1.0000   1.0000   1.0000   1.0000   1.0000   1.0000   1.0000
     1.0000   1.0000   1.0000   1.0000   1.0000   1.0000   1.0000   1.0000
     1.0000   1.0000   1.0000   1.0000   1.0000   1.0000   1.0000   1.0000
     1.0000   1.0000   1.0000   1.0000   1.0000   1.0000   1.0000   1.0000
     1.0000   1.0000   1.0000   1.0000   1.0000   1.0000   1.0000   1.0000
     1.0000   1.0000   1.0000   1.0000   1.0000   1.0000   1.0000   1.0000
     1.0000   1.0000   1.0000   1.0000   1.0000   1.0000   1.0000   1.0000
     1.0000   1.0000   1.0000   1.0000   1.0000   1.0000   1.0000   1.0000
     1.0000   1.0000   1.0000   1.0000   1.0000   1.0000   1.0000   1.0000
     1.0000   1.0000   1.0000   1.0000   1.0000   1.0000   1.0000   1.0000
     1.0000   1.0000   1.0000   1.0000   1.0000   1.0000   1.0000   1.0000
     1.0000   1.0000   1.0000   1.0000   1.0000   1.0000   1.0000   1.0000
     1.0000   1.0000   1.0000   1.0000   1.0000   1.0000   1.0000   1.0000
     1.0000   1.0000   1.0000   1.0000   1.0000   1.0000   1.0000   1.0000
     1.0000   1.0000   1.0000   1.0000   1.0000   1.0000   1.0000   1.0000
     1.0000   1.0000   1.0000   1.0000   1.0000   1.0000   1.0000   1.0000
     1.0000   1.0000   1.0000   1.0000   1.0000   1.0000   1.0000   1.0000
     1.0000   1.0000   1.0000   1.0000   1.0000   1.0000   1.0000   1.0000
     1.0000   1.0000   1.0000   1.0000   1.0000   1.0000   1.0000   1.0000
     1.0000   1.0000   1.0000   1.0000   1.0000   1.0000   1.0000   1.0000
     1.0000   1.0000   1.0000   1.0000   1.0000   1.0000   1.0000   1.0000
     1.0000   1.0000   1.0000   1.0000   1.0000   1.0000   1.0000   1.0000
     1.0000   1.0000   1.0000   1.0000   1.0000   1.0000   1.0000   1.0000
     1.0000   1.0000   1.0000   1.0000   1.0000   1.0000   1.0000   1.0000
     1.0000   1.0000   1.0000   1.0000   1.0000   1.0000   1.0000   1.0000
     1.0000   1.0000   1.0000   1.0000   1.0000   1.0000   1.0000   1.0000
     1.0000   1.0000   1.0000   1.0000   1.0000   1.0000   1.0000   1.0000
     1.0000   1.0000   1.0000   1.0000   1.0000   1.0000   1.0000   1.0000
     1.0000   1.0000   1.0000   1.0000   1.0000   1.0000   1.0000   1.0000
     1.0000   1.0000   1.0000   1.0000   1.0000   1.0000   1.0000   1.0000
     1.0000   1.0000   1.0000   1.0000

     highest occupied level (ev):    -3.1345

!    total energy              =  -10441.96652088 Ry
     estimated scf accuracy    <          2.4E-11 Ry

     The total energy is the sum of the following terms:
     one-electron contribution =  -56407.45690171 Ry
     hartree contribution      =   28688.93932747 Ry
     xc contribution           =   -2094.20208519 Ry
     ewald contribution        =   21623.41372930 Ry
     one-center paw contrib.   =   -2252.66059076 Ry
      -> PAW hartree energy AE =     423.79321035 Ry
      -> PAW hartree energy PS =    -421.77735034 Ry
      -> PAW xc energy AE      =    -254.96834544 Ry
      -> PAW xc energy PS      =     110.36963490 Ry
      -> total E_H with PAW    =   28690.95518749 Ry
      -> total E_XC with PAW   =   -2238.80079574 Ry

     convergence has been achieved in  21 iterations
