
     Program PWSCF v.6.8 starts on 30Sep2021 at  0:36:56 

     This program is part of the open-source Quantum ESPRESSO suite
     for quantum simulation of materials; please cite
         "P. Giannozzi et al., J. Phys.:Condens. Matter 21 395502 (2009);
         "P. Giannozzi et al., J. Phys.:Condens. Matter 29 465901 (2017);
         "P. Giannozzi et al., J. Chem. Phys. 152 154105 (2020);
          URL http://www.quantum-espresso.org", 
     in publications or presentations arising from this work. More details at
     http://www.quantum-espresso.org/quote

     Parallel version (MPI & OpenMP), running on      64 processor cores
     Number of MPI processes:                16
     Threads/MPI process:                     4

     MPI processes distributed on     2 nodes
     R & G space division:  proc/nbgrp/npool/nimage =      16
     281128 MiB available memory on the printing compute node when the environment starts
 
     Reading input from 007.in

     Current dimensions of program PWSCF are:
     Max number of different atomic species (ntypx) = 10
     Max number of k-points (npk) =  40000
     Max angular momentum in pseudopotentials (lmaxx) =  4
     file O.pbe-n-kjpaw_psl.0.1.UPF: wavefunction(s)  2P renormalized

     gamma-point specific algorithms are used

     Subspace diagonalization in iterative solution of the eigenvalue problem:
     a serial algorithm will be used

 
     Parallelization info
     --------------------
     sticks:   dense  smooth     PW     G-vecs:    dense   smooth      PW
     Min        2114    1057    263               292888   103542   12928
     Max        2118    1060    266               292896   103550   12936
     Sum       33849   16929   4229              4686239  1656739  206917
 
     Using Slab Decomposition
 


     bravais-lattice index     =            1
     lattice parameter (alat)  =      29.7726  a.u.
     unit-cell volume          =   26390.7555 (a.u.)^3
     number of atoms/cell      =          141
     number of atomic types    =            2
     number of electrons       =       376.00
     number of Kohn-Sham states=          188
     kinetic-energy cutoff     =      60.0000  Ry
     charge density cutoff     =     480.0000  Ry
     scf convergence threshold =      1.0E-10
     mixing beta               =       0.7000
     number of iterations used =            8  plain     mixing
     Exchange-correlation= SLA  PW   PBX  PBC
                           (   1   4   3   4   0   0   0)

     GPU acceleration is ACTIVE.


     GPU used by master process:

        Device Number: 0
        Device name: Tesla V100-SXM2-16GB
        Compute capability : 70
        Ratio of single to double precision performance  : 2
        Memory Clock Rate (KHz): 877000
        Memory Bus Width (bits): 4096
        Peak Memory Bandwidth (GB/s): 898.05

     celldm(1)=  29.772635  celldm(2)=   0.000000  celldm(3)=   0.000000
     celldm(4)=   0.000000  celldm(5)=   0.000000  celldm(6)=   0.000000

     crystal axes: (cart. coord. in units of alat)
               a(1) = (   1.000000   0.000000   0.000000 )  
               a(2) = (   0.000000   1.000000   0.000000 )  
               a(3) = (   0.000000   0.000000   1.000000 )  

     reciprocal axes: (cart. coord. in units 2 pi/alat)
               b(1) = (  1.000000  0.000000  0.000000 )  
               b(2) = (  0.000000  1.000000  0.000000 )  
               b(3) = (  0.000000  0.000000  1.000000 )  


     PseudoPot. # 1 for H  read from file:
     ./H.pbe-rrkjus_psl.1.0.0.UPF
     MD5 check sum: f52b6d4d1c606e5624b1dc7b2218f220
     Pseudo is Ultrasoft, Zval =  1.0
     Generated using "atomic" code by A. Dal Corso  v.5.1
     Using radial grid of  929 points,  2 beta functions with: 
                l(1) =   0
                l(2) =   0
     Q(r) pseudized with 0 coefficients 


     PseudoPot. # 2 for O  read from file:
     ./O.pbe-n-kjpaw_psl.0.1.UPF
     MD5 check sum: 0234752ac141de4415c5fc33072bef88
     Pseudo is Projector augmented-wave + core cor, Zval =  6.0
     Generated using "atomic" code by A. Dal Corso  v.5.0.99 svn rev. 10869
     Shape of augmentation charge: BESSEL
     Using radial grid of 1095 points,  4 beta functions with: 
                l(1) =   0
                l(2) =   0
                l(3) =   1
                l(4) =   1
     Q(r) pseudized with 0 coefficients 


     atomic species   valence    mass     pseudopotential
        H              1.00     1.00000     H ( 1.00)
        O              6.00    16.00000     O ( 1.00)

     No symmetry found


                                    s                        frac. trans.

      isym =  1     identity                                     

 cryst.   s( 1) = (     1          0          0      )
                  (     0          1          0      )
                  (     0          0          1      )

 cart.    s( 1) = (  1.0000000  0.0000000  0.0000000 )
                  (  0.0000000  1.0000000  0.0000000 )
                  (  0.0000000  0.0000000  1.0000000 )


     point group C_1 (1)    
     there are  1 classes
     the character table:

       E    
A      1.00

     the symmetry operations in each class and the name of the first element:

     E        1
          identity                                               

   Cartesian axes

     site n.     atom                  positions (alat units)
         1           O   tau(   1) = (   0.0563542   0.2157321   0.3443262  )
         2           H   tau(   2) = (   0.0982456   0.2375665   0.3866620  )
         3           H   tau(   3) = (   0.0867572   0.1823459   0.2997690  )
         4           O   tau(   4) = (   0.2164303   0.1985313  -0.2924557  )
         5           H   tau(   5) = (   0.2739994   0.1997372  -0.2656515  )
         6           H   tau(   6) = (   0.1819016   0.1520698  -0.2663751  )
         7           O   tau(   7) = (  -0.1509514   0.2020222   0.0344564  )
         8           H   tau(   8) = (  -0.1347851   0.2033551  -0.0269337  )
         9           H   tau(   9) = (  -0.1953881   0.1575919   0.0435963  )
        10           O   tau(  10) = (   0.0537518   0.3183662  -0.0788600  )
        11           H   tau(  11) = (   0.0781250   0.2809178  -0.0338077  )
        12           H   tau(  12) = (   0.1000863   0.3530219  -0.1049470  )
        13           O   tau(  13) = (   0.0249356   0.0212542  -0.2781111  )
        14           H   tau(  14) = (   0.0786328   0.0298864  -0.2454421  )
        15           H   tau(  15) = (  -0.0230682   0.0497531  -0.2478794  )
        16           O   tau(  16) = (  -0.0278096   0.0635265   0.0608607  )
        17           H   tau(  17) = (  -0.0585808   0.0090549   0.0501339  )
        18           H   tau(  18) = (  -0.0698534   0.1096071   0.0724126  )
        19           O   tau(  19) = (  -0.0919162  -0.0839061  -0.1596344  )
        20           H   tau(  20) = (  -0.0298343  -0.0753564  -0.1495678  )
        21           H   tau(  21) = (  -0.1161752  -0.0322209  -0.1873589  )
        22           O   tau(  22) = (   0.0314097   0.0209368   0.2197944  )
        23           H   tau(  23) = (   0.0257607   0.0503878   0.1638756  )
        24           H   tau(  24) = (  -0.0093393  -0.0276446   0.2223332  )
        25           O   tau(  25) = (  -0.1384856  -0.0836077   0.0104640  )
        26           H   tau(  26) = (  -0.1954516  -0.0606500   0.0264589  )
        27           H   tau(  27) = (  -0.1306341  -0.0788283  -0.0523669  )
        28           O   tau(  28) = (  -0.2461847  -0.0422748   0.2151609  )
        29           H   tau(  29) = (  -0.2678223  -0.0284951   0.2732377  )
        30           H   tau(  30) = (  -0.1849724  -0.0586696   0.2187788  )
        31           O   tau(  31) = (  -0.2228778   0.1146849  -0.3190441  )
        32           H   tau(  32) = (  -0.2847947   0.1136693  -0.3329445  )
        33           H   tau(  33) = (  -0.1901644   0.1347420  -0.3695868  )
        34           O   tau(  34) = (  -0.2155785  -0.2662672   0.1577823  )
        35           H   tau(  35) = (  -0.2599073  -0.2274795   0.1341073  )
        36           H   tau(  36) = (  -0.1593424  -0.2524557   0.1317588  )
        37           O   tau(  37) = (   0.2359162  -0.2554262   0.0214446  )
        38           H   tau(  38) = (   0.2795214  -0.2578635   0.0674618  )
        39           H   tau(  39) = (   0.1840597  -0.2258229   0.0429616  )
        40           O   tau(  40) = (  -0.1135474   0.2418191   0.2908194  )
        41           H   tau(  41) = (  -0.0509832   0.2460083   0.3005941  )
        42           H   tau(  42) = (  -0.1414878   0.2177632   0.3424856  )
        43           O   tau(  43) = (  -0.1081650   0.0908194  -0.1919733  )
        44           H   tau(  44) = (  -0.0992218   0.1463573  -0.1626239  )
        45           H   tau(  45) = (  -0.1480317   0.0988169  -0.2407071  )
        46           O   tau(  46) = (   0.2863764   0.1950403   0.1051006  )
        47           H   tau(  47) = (   0.2478489   0.2421999   0.0872650  )
        48           H   tau(  48) = (   0.3392485   0.2192866   0.1304259  )
        49           O   tau(  49) = (   0.2840279  -0.2791774  -0.1418242  )
        50           H   tau(  50) = (   0.2345198  -0.3026557  -0.1737886  )
        51           H   tau(  51) = (   0.2693659  -0.2747915  -0.0802374  )
        52           O   tau(  52) = (   0.2314097  -0.0892567  -0.0183205  )
        53           H   tau(  53) = (   0.1753640  -0.0748486  -0.0443948  )
        54           H   tau(  54) = (   0.2460083  -0.1495931  -0.0315481  )
        55           O   tau(  55) = (  -0.0689013  -0.2152993   0.0920254  )
        56           H   tau(  56) = (  -0.0894281  -0.1667750   0.0566715  )
        57           H   tau(  57) = (  -0.0386062  -0.2570892   0.0550847  )
        58           O   tau(  58) = (   0.1674935   0.0639708  -0.1774383  )
        59           H   tau(  59) = (   0.2275379   0.0525459  -0.1944424  )
        60           H   tau(  60) = (   0.1660336   0.0845357  -0.1174065  )
        61           O   tau(  61) = (  -0.2554706   0.0733646   0.0904386  )
        62           H   tau(  62) = (  -0.2604468   0.0373126   0.1424221  )
        63           H   tau(  63) = (  -0.3134586   0.0890422   0.0699372  )
        64           O   tau(  64) = (  -0.3157118  -0.1691615  -0.0829794  )
        65           H   tau(  65) = (  -0.3241726  -0.1559594  -0.0214751  )
        66           H   tau(  66) = (  -0.2960482  -0.1169813  -0.1132999  )
        67           O   tau(  67) = (  -0.0880571  -0.1022939   0.2312828  )
        68           H   tau(  68) = (  -0.0826620  -0.1505008   0.1903434  )
        69           H   tau(  69) = (  -0.0759975  -0.1229921   0.2900578  )
        70           O   tau(  70) = (   0.2745706   0.0127490   0.1065605  )
        71           H   tau(  71) = (   0.2644786   0.0746976   0.0970397  )
        72           H   tau(  72) = (   0.2509591  -0.0202628   0.0578140  )
        73           O   tau(  73) = (   0.1381695   0.2682234   0.0682234  )
        74           H   tau(  74) = (   0.0955163   0.2431520   0.1079568  )
        75           H   tau(  75) = (   0.1242056   0.3292199   0.0578775  )
        76           O   tau(  76) = (  -0.2192409  -0.3738458   0.0187153  )
        77           H   tau(  77) = (  -0.1741631  -0.3394123  -0.0097836  )
        78           H   tau(  78) = (  -0.2075367  -0.3766258   0.0810447  )
        79           O   tau(  79) = (  -0.3258293  -0.1354199   0.0967223  )
        80           H   tau(  80) = (  -0.3859626  -0.1530016   0.1068778  )
        81           H   tau(  81) = (  -0.3094154  -0.0908245   0.1388042  )
        82           O   tau(  82) = (   0.3428664   0.0489914  -0.2045217  )
        83           H   tau(  83) = (   0.3532123   0.0052656  -0.2493520  )
        84           H   tau(  84) = (   0.3393754   0.0206830  -0.1478032  )
        85           O   tau(  85) = (  -0.0979968   0.2486741  -0.1287744  )
        86           H   tau(  86) = (  -0.1177429   0.2792675  -0.1807515  )
        87           H   tau(  87) = (  -0.0414878   0.2714605  -0.1109959  )
        88           O   tau(  88) = (  -0.0497709   0.3458496  -0.2908689  )
        89           H   tau(  89) = (   0.0090676   0.3222380  -0.2933380  )
        90           H   tau(  90) = (  -0.0469844   0.4090676  -0.2856769  )
        91           O   tau(  91) = (   0.1210955  -0.3481206  -0.0968543  )
        92           H   tau(  92) = (   0.1443897  -0.3998629  -0.1252834  )
        93           H   tau(  93) = (   0.1386138  -0.3477969  -0.0358515  )
        94           O   tau(  94) = (  -0.0939727   0.0574332   0.3759987  )
        95           H   tau(  95) = (  -0.0542076   0.0852974   0.4168112  )
        96           H   tau(  96) = (  -0.0606119   0.0251895   0.3326474  )
        97           O   tau(  97) = (   0.2032282  -0.1424462  -0.2444519  )
        98           H   tau(  98) = (   0.2305846  -0.1078413  -0.2901073  )
        99           H   tau(  99) = (   0.2468969  -0.1792663  -0.2167972  )
       100           O   tau( 100) = (  -0.2933570   0.0103116  -0.1287045  )
       101           H   tau( 101) = (  -0.2355912   0.0365509  -0.1272129  )
       102           H   tau( 102) = (  -0.3344487   0.0510225  -0.1547851  )
       103           O   tau( 103) = (  -0.0473780  -0.3322209  -0.0324430  )
       104           H   tau( 104) = (  -0.0848708  -0.3556801  -0.0779651  )
       105           H   tau( 105) = (   0.0128759  -0.3324303  -0.0524557  )
       106           O   tau( 106) = (  -0.4143599   0.1045928   0.0202387  )
       107           H   tau( 107) = (  -0.4421987   0.1485154  -0.0161308  )
       108           H   tau( 108) = (  -0.4365243   0.0471507   0.0046880  )
       109           O   tau( 109) = (   0.1337899   0.1089724  -0.0195900  )
       110           H   tau( 110) = (   0.1537836   0.1609559   0.0108448  )
       111           H   tau( 111) = (   0.0827585   0.0854243   0.0099562  )
       112           O   tau( 112) = (  -0.0713005  -0.2446233  -0.2330079  )
       113           H   tau( 113) = (  -0.0771082  -0.1835950  -0.2165624  )
       114           H   tau( 114) = (  -0.0098470  -0.2605484  -0.2338965  )
       115           O   tau( 115) = (   0.2089407  -0.0505008   0.2627014  )
       116           H   tau( 116) = (   0.2494357  -0.0412529   0.2146531  )
       117           H   tau( 117) = (   0.1493405  -0.0464386   0.2411844  )
       118           O   tau( 118) = (  -0.0488442  -0.1013672  -0.3818813  )
       119           H   tau( 119) = (  -0.0814878  -0.0678921  -0.4248010  )
       120           H   tau( 120) = (  -0.0148613  -0.0618750  -0.3456579  )
       121           O   tau( 121) = (  -0.1993297   0.3843136   0.0641612  )
       122           H   tau( 122) = (  -0.1554833   0.4169381   0.0964050  )
       123           H   tau( 123) = (  -0.1754706   0.3280140   0.0470238  )
       124           O   tau( 124) = (   0.1828537   0.1362653   0.2705084  )
       125           H   tau( 125) = (   0.2112891   0.1511812   0.2157956  )
       126           H   tau( 126) = (   0.1539740   0.0800292   0.2647325  )
       127           O   tau( 127) = (   0.1019270  -0.2459118   0.2724126  )
       128           H   tau( 128) = (   0.1418508  -0.2949502   0.2668905  )
       129           H   tau( 129) = (   0.0443580  -0.2672129   0.2884710  )
       130           O   tau( 130) = (   0.3864716  -0.0312434  -0.0557055  )
       131           H   tau( 131) = (   0.3312510  -0.0573558  -0.0385109  )
       132           H   tau( 132) = (   0.4308385  -0.0453278  -0.0125763  )
       133           O   tau( 133) = (   0.1005306  -0.1515354   0.1165890  )
       134           H   tau( 134) = (   0.0385820  -0.1546646   0.1031330  )
       135           H   tau( 135) = (   0.1103688  -0.1714211   0.1760622  )
       136           O   tau( 136) = (   0.0896769  -0.0963529  -0.1240076  )
       137           H   tau( 137) = (   0.1048467  -0.0381047  -0.1441536  )
       138           H   tau( 138) = (   0.1251577  -0.1392091  -0.1545820  )
       139           O   tau( 139) = (  -0.0169749   0.2182076   0.1290930  )
       140           H   tau( 140) = (  -0.0388093   0.2075443   0.1877410  )
       141           H   tau( 141) = (  -0.0657341   0.2296960   0.0901212  )

   Crystallographic axes

     site n.     atom                  positions (cryst. coord.)
         1           O   tau(   1) = (  0.0563542  0.2157321  0.3443262  )
         2           H   tau(   2) = (  0.0982456  0.2375665  0.3866620  )
         3           H   tau(   3) = (  0.0867572  0.1823459  0.2997690  )
         4           O   tau(   4) = (  0.2164303  0.1985313 -0.2924557  )
         5           H   tau(   5) = (  0.2739994  0.1997372 -0.2656515  )
         6           H   tau(   6) = (  0.1819016  0.1520698 -0.2663751  )
         7           O   tau(   7) = ( -0.1509514  0.2020222  0.0344564  )
         8           H   tau(   8) = ( -0.1347851  0.2033551 -0.0269337  )
         9           H   tau(   9) = ( -0.1953881  0.1575919  0.0435963  )
        10           O   tau(  10) = (  0.0537518  0.3183662 -0.0788600  )
        11           H   tau(  11) = (  0.0781250  0.2809178 -0.0338077  )
        12           H   tau(  12) = (  0.1000863  0.3530219 -0.1049470  )
        13           O   tau(  13) = (  0.0249356  0.0212542 -0.2781111  )
        14           H   tau(  14) = (  0.0786328  0.0298864 -0.2454421  )
        15           H   tau(  15) = ( -0.0230682  0.0497531 -0.2478794  )
        16           O   tau(  16) = ( -0.0278096  0.0635265  0.0608607  )
        17           H   tau(  17) = ( -0.0585808  0.0090549  0.0501339  )
        18           H   tau(  18) = ( -0.0698534  0.1096071  0.0724126  )
        19           O   tau(  19) = ( -0.0919162 -0.0839061 -0.1596344  )
        20           H   tau(  20) = ( -0.0298343 -0.0753564 -0.1495678  )
        21           H   tau(  21) = ( -0.1161752 -0.0322209 -0.1873589  )
        22           O   tau(  22) = (  0.0314097  0.0209368  0.2197944  )
        23           H   tau(  23) = (  0.0257607  0.0503878  0.1638756  )
        24           H   tau(  24) = ( -0.0093393 -0.0276446  0.2223332  )
        25           O   tau(  25) = ( -0.1384856 -0.0836077  0.0104640  )
        26           H   tau(  26) = ( -0.1954516 -0.0606500  0.0264589  )
        27           H   tau(  27) = ( -0.1306341 -0.0788283 -0.0523669  )
        28           O   tau(  28) = ( -0.2461847 -0.0422748  0.2151609  )
        29           H   tau(  29) = ( -0.2678223 -0.0284951  0.2732377  )
        30           H   tau(  30) = ( -0.1849724 -0.0586696  0.2187788  )
        31           O   tau(  31) = ( -0.2228778  0.1146849 -0.3190441  )
        32           H   tau(  32) = ( -0.2847947  0.1136693 -0.3329445  )
        33           H   tau(  33) = ( -0.1901644  0.1347420 -0.3695868  )
        34           O   tau(  34) = ( -0.2155785 -0.2662672  0.1577823  )
        35           H   tau(  35) = ( -0.2599073 -0.2274795  0.1341073  )
        36           H   tau(  36) = ( -0.1593424 -0.2524557  0.1317588  )
        37           O   tau(  37) = (  0.2359162 -0.2554262  0.0214446  )
        38           H   tau(  38) = (  0.2795214 -0.2578635  0.0674618  )
        39           H   tau(  39) = (  0.1840597 -0.2258229  0.0429616  )
        40           O   tau(  40) = ( -0.1135474  0.2418191  0.2908194  )
        41           H   tau(  41) = ( -0.0509832  0.2460083  0.3005941  )
        42           H   tau(  42) = ( -0.1414878  0.2177632  0.3424856  )
        43           O   tau(  43) = ( -0.1081650  0.0908194 -0.1919733  )
        44           H   tau(  44) = ( -0.0992218  0.1463573 -0.1626239  )
        45           H   tau(  45) = ( -0.1480317  0.0988169 -0.2407071  )
        46           O   tau(  46) = (  0.2863764  0.1950403  0.1051006  )
        47           H   tau(  47) = (  0.2478489  0.2421999  0.0872650  )
        48           H   tau(  48) = (  0.3392485  0.2192866  0.1304259  )
        49           O   tau(  49) = (  0.2840279 -0.2791774 -0.1418242  )
        50           H   tau(  50) = (  0.2345198 -0.3026557 -0.1737886  )
        51           H   tau(  51) = (  0.2693659 -0.2747915 -0.0802374  )
        52           O   tau(  52) = (  0.2314097 -0.0892567 -0.0183205  )
        53           H   tau(  53) = (  0.1753640 -0.0748486 -0.0443948  )
        54           H   tau(  54) = (  0.2460083 -0.1495931 -0.0315481  )
        55           O   tau(  55) = ( -0.0689013 -0.2152993  0.0920254  )
        56           H   tau(  56) = ( -0.0894281 -0.1667750  0.0566715  )
        57           H   tau(  57) = ( -0.0386062 -0.2570892  0.0550847  )
        58           O   tau(  58) = (  0.1674935  0.0639708 -0.1774383  )
        59           H   tau(  59) = (  0.2275379  0.0525459 -0.1944424  )
        60           H   tau(  60) = (  0.1660336  0.0845357 -0.1174065  )
        61           O   tau(  61) = ( -0.2554706  0.0733646  0.0904386  )
        62           H   tau(  62) = ( -0.2604468  0.0373126  0.1424221  )
        63           H   tau(  63) = ( -0.3134586  0.0890422  0.0699372  )
        64           O   tau(  64) = ( -0.3157118 -0.1691615 -0.0829794  )
        65           H   tau(  65) = ( -0.3241726 -0.1559594 -0.0214751  )
        66           H   tau(  66) = ( -0.2960482 -0.1169813 -0.1132999  )
        67           O   tau(  67) = ( -0.0880571 -0.1022939  0.2312828  )
        68           H   tau(  68) = ( -0.0826620 -0.1505008  0.1903434  )
        69           H   tau(  69) = ( -0.0759975 -0.1229921  0.2900578  )
        70           O   tau(  70) = (  0.2745706  0.0127490  0.1065605  )
        71           H   tau(  71) = (  0.2644786  0.0746976  0.0970397  )
        72           H   tau(  72) = (  0.2509591 -0.0202628  0.0578140  )
        73           O   tau(  73) = (  0.1381695  0.2682234  0.0682234  )
        74           H   tau(  74) = (  0.0955163  0.2431520  0.1079568  )
        75           H   tau(  75) = (  0.1242056  0.3292199  0.0578775  )
        76           O   tau(  76) = ( -0.2192409 -0.3738458  0.0187153  )
        77           H   tau(  77) = ( -0.1741631 -0.3394123 -0.0097836  )
        78           H   tau(  78) = ( -0.2075367 -0.3766258  0.0810447  )
        79           O   tau(  79) = ( -0.3258293 -0.1354199  0.0967223  )
        80           H   tau(  80) = ( -0.3859626 -0.1530016  0.1068778  )
        81           H   tau(  81) = ( -0.3094154 -0.0908245  0.1388042  )
        82           O   tau(  82) = (  0.3428664  0.0489914 -0.2045217  )
        83           H   tau(  83) = (  0.3532123  0.0052656 -0.2493520  )
        84           H   tau(  84) = (  0.3393754  0.0206830 -0.1478032  )
        85           O   tau(  85) = ( -0.0979968  0.2486741 -0.1287744  )
        86           H   tau(  86) = ( -0.1177429  0.2792675 -0.1807515  )
        87           H   tau(  87) = ( -0.0414878  0.2714605 -0.1109959  )
        88           O   tau(  88) = ( -0.0497709  0.3458496 -0.2908689  )
        89           H   tau(  89) = (  0.0090676  0.3222380 -0.2933380  )
        90           H   tau(  90) = ( -0.0469844  0.4090676 -0.2856769  )
        91           O   tau(  91) = (  0.1210955 -0.3481206 -0.0968543  )
        92           H   tau(  92) = (  0.1443897 -0.3998629 -0.1252834  )
        93           H   tau(  93) = (  0.1386138 -0.3477969 -0.0358515  )
        94           O   tau(  94) = ( -0.0939727  0.0574332  0.3759987  )
        95           H   tau(  95) = ( -0.0542076  0.0852974  0.4168112  )
        96           H   tau(  96) = ( -0.0606119  0.0251895  0.3326474  )
        97           O   tau(  97) = (  0.2032282 -0.1424462 -0.2444519  )
        98           H   tau(  98) = (  0.2305846 -0.1078413 -0.2901073  )
        99           H   tau(  99) = (  0.2468969 -0.1792663 -0.2167972  )
       100           O   tau( 100) = ( -0.2933570  0.0103116 -0.1287045  )
       101           H   tau( 101) = ( -0.2355912  0.0365509 -0.1272129  )
       102           H   tau( 102) = ( -0.3344487  0.0510225 -0.1547851  )
       103           O   tau( 103) = ( -0.0473780 -0.3322209 -0.0324430  )
       104           H   tau( 104) = ( -0.0848708 -0.3556801 -0.0779651  )
       105           H   tau( 105) = (  0.0128759 -0.3324303 -0.0524557  )
       106           O   tau( 106) = ( -0.4143599  0.1045928  0.0202387  )
       107           H   tau( 107) = ( -0.4421987  0.1485154 -0.0161308  )
       108           H   tau( 108) = ( -0.4365243  0.0471507  0.0046880  )
       109           O   tau( 109) = (  0.1337899  0.1089724 -0.0195900  )
       110           H   tau( 110) = (  0.1537836  0.1609559  0.0108448  )
       111           H   tau( 111) = (  0.0827585  0.0854243  0.0099562  )
       112           O   tau( 112) = ( -0.0713005 -0.2446233 -0.2330079  )
       113           H   tau( 113) = ( -0.0771082 -0.1835950 -0.2165624  )
       114           H   tau( 114) = ( -0.0098470 -0.2605484 -0.2338965  )
       115           O   tau( 115) = (  0.2089407 -0.0505008  0.2627014  )
       116           H   tau( 116) = (  0.2494357 -0.0412529  0.2146531  )
       117           H   tau( 117) = (  0.1493405 -0.0464386  0.2411844  )
       118           O   tau( 118) = ( -0.0488442 -0.1013672 -0.3818813  )
       119           H   tau( 119) = ( -0.0814878 -0.0678921 -0.4248010  )
       120           H   tau( 120) = ( -0.0148613 -0.0618750 -0.3456579  )
       121           O   tau( 121) = ( -0.1993297  0.3843136  0.0641612  )
       122           H   tau( 122) = ( -0.1554833  0.4169381  0.0964050  )
       123           H   tau( 123) = ( -0.1754706  0.3280140  0.0470238  )
       124           O   tau( 124) = (  0.1828537  0.1362653  0.2705084  )
       125           H   tau( 125) = (  0.2112891  0.1511812  0.2157956  )
       126           H   tau( 126) = (  0.1539740  0.0800292  0.2647325  )
       127           O   tau( 127) = (  0.1019270 -0.2459118  0.2724126  )
       128           H   tau( 128) = (  0.1418508 -0.2949502  0.2668905  )
       129           H   tau( 129) = (  0.0443580 -0.2672129  0.2884710  )
       130           O   tau( 130) = (  0.3864716 -0.0312434 -0.0557055  )
       131           H   tau( 131) = (  0.3312510 -0.0573558 -0.0385109  )
       132           H   tau( 132) = (  0.4308385 -0.0453278 -0.0125763  )
       133           O   tau( 133) = (  0.1005306 -0.1515354  0.1165890  )
       134           H   tau( 134) = (  0.0385820 -0.1546646  0.1031330  )
       135           H   tau( 135) = (  0.1103688 -0.1714211  0.1760622  )
       136           O   tau( 136) = (  0.0896769 -0.0963529 -0.1240076  )
       137           H   tau( 137) = (  0.1048467 -0.0381047 -0.1441536  )
       138           H   tau( 138) = (  0.1251577 -0.1392091 -0.1545820  )
       139           O   tau( 139) = ( -0.0169749  0.2182076  0.1290930  )
       140           H   tau( 140) = ( -0.0388093  0.2075443  0.1877410  )
       141           H   tau( 141) = ( -0.0657341  0.2296960  0.0901212  )

     number of k points=     1
                       cart. coord. in units 2pi/alat
        k(    1) = (   0.0000000   0.0000000   0.0000000), wk =   2.0000000

                       cryst. coord.
        k(    1) = (   0.0000000   0.0000000   0.0000000), wk =   2.0000000

     Dense  grid:  2343120 G-vectors     FFT dimensions: ( 216, 216, 216)

     Smooth grid:   828370 G-vectors     FFT dimensions: ( 150, 150, 150)

     Dynamical RAM for                 wfc:      18.57 MB

     Dynamical RAM for     wfc (w. buffer):      18.57 MB

     Dynamical RAM for           str. fact:       4.47 MB

     Dynamical RAM for           local pot:       0.00 MB

     Dynamical RAM for          nlocal pot:      55.70 MB

     Dynamical RAM for                qrad:       1.00 MB

     Dynamical RAM for          rho,v,vnew:      21.65 MB

     Dynamical RAM for               rhoin:       7.22 MB

     Dynamical RAM for            rho*nmix:      35.75 MB

     Dynamical RAM for           G-vectors:       8.77 MB

     Dynamical RAM for          h,s,v(r/c):       3.24 MB

     Dynamical RAM for          <psi|beta>:       0.81 MB

     Dynamical RAM for                 psi:      37.13 MB

     Dynamical RAM for                hpsi:      37.13 MB

     Dynamical RAM for                spsi:      37.13 MB

     Dynamical RAM for      wfcinit/wfcrot:      57.52 MB

     Dynamical RAM for           addusdens:     306.14 MB

     Dynamical RAM for          addusforce:     722.96 MB

     Estimated static dynamical RAM per process >     149.00 MB

     Estimated max dynamical RAM per process >     907.72 MB

     Estimated total dynamical RAM >      14.18 GB

     Initial potential from superposition of free atoms

     starting charge  375.99904, renormalised to  376.00000

     negative rho (up, down):  7.585E-04 0.000E+00
     Starting wfcs are  282 randomized atomic wfcs
     Checking if some PAW data can be deallocated... 

     total cpu time spent up to now is        4.3 secs

     per-process dynamical memory:   831.2 Mb

     Self-consistent Calculation
[tb_dev] Currently allocated     5.86E+01 Mbytes, locked:    0 /  11
[tb_pin] Currently allocated     0.00E+00 Mbytes, locked:    0 /   0

     iteration #  1     ecut=    60.00 Ry     beta= 0.70
     Davidson diagonalization with overlap

---- Real-time Memory Report at c_bands before calling an iterative solver
          1406 MiB given to the printing process from OS
           817 MiB allocation reported by mallinfo(arena+hblkhd)
        271137 MiB available memory on the node where the printing process lives
     GPU memory used/free/total (MiB): 1793 / 14367 / 16160
------------------
     ethr =  1.00E-02,  avg # of iterations =  2.0

     negative rho (up, down):  2.072E-03 0.000E+00

     total cpu time spent up to now is        5.5 secs

     total energy              =   -2062.55727934 Ry
     estimated scf accuracy    <      18.00124525 Ry
[tb_dev] Currently allocated     3.63E+02 Mbytes, locked:    0 /  15
[tb_pin] Currently allocated     2.23E+00 Mbytes, locked:    0 /   1

     iteration #  2     ecut=    60.00 Ry     beta= 0.70
     Davidson diagonalization with overlap

---- Real-time Memory Report at c_bands before calling an iterative solver
          1499 MiB given to the printing process from OS
           850 MiB allocation reported by mallinfo(arena+hblkhd)
        268562 MiB available memory on the node where the printing process lives
     GPU memory used/free/total (MiB): 2419 / 13741 / 16160
------------------
     ethr =  4.79E-03,  avg # of iterations =  3.0

     negative rho (up, down):  1.994E-03 0.000E+00

     total cpu time spent up to now is        6.7 secs

     total energy              =   -2068.03147155 Ry
     estimated scf accuracy    <      14.43194558 Ry
[tb_dev] Currently allocated     3.63E+02 Mbytes, locked:    0 /  15
[tb_pin] Currently allocated     2.23E+00 Mbytes, locked:    0 /   1

     iteration #  3     ecut=    60.00 Ry     beta= 0.70
     Davidson diagonalization with overlap

---- Real-time Memory Report at c_bands before calling an iterative solver
          1499 MiB given to the printing process from OS
           852 MiB allocation reported by mallinfo(arena+hblkhd)
        268434 MiB available memory on the node where the printing process lives
     GPU memory used/free/total (MiB): 2419 / 13741 / 16160
------------------
     ethr =  3.84E-03,  avg # of iterations =  2.0

     negative rho (up, down):  1.804E-03 0.000E+00

     total cpu time spent up to now is        7.8 secs

     total energy              =   -2070.09014726 Ry
     estimated scf accuracy    <       0.53532464 Ry
[tb_dev] Currently allocated     3.63E+02 Mbytes, locked:    0 /  15
[tb_pin] Currently allocated     2.23E+00 Mbytes, locked:    0 /   1

     iteration #  4     ecut=    60.00 Ry     beta= 0.70
     Davidson diagonalization with overlap

---- Real-time Memory Report at c_bands before calling an iterative solver
          1504 MiB given to the printing process from OS
           856 MiB allocation reported by mallinfo(arena+hblkhd)
        268456 MiB available memory on the node where the printing process lives
     GPU memory used/free/total (MiB): 2419 / 13741 / 16160
------------------
     ethr =  1.42E-04,  avg # of iterations =  4.0

     negative rho (up, down):  2.267E-03 0.000E+00

     total cpu time spent up to now is        9.1 secs

     total energy              =   -2070.56430963 Ry
     estimated scf accuracy    <       0.62419974 Ry
[tb_dev] Currently allocated     3.63E+02 Mbytes, locked:    0 /  15
[tb_pin] Currently allocated     2.23E+00 Mbytes, locked:    0 /   1

     iteration #  5     ecut=    60.00 Ry     beta= 0.70
     Davidson diagonalization with overlap

---- Real-time Memory Report at c_bands before calling an iterative solver
          1506 MiB given to the printing process from OS
           859 MiB allocation reported by mallinfo(arena+hblkhd)
        268377 MiB available memory on the node where the printing process lives
     GPU memory used/free/total (MiB): 2419 / 13741 / 16160
------------------
     ethr =  1.42E-04,  avg # of iterations =  2.0

     negative rho (up, down):  2.380E-03 0.000E+00

     total cpu time spent up to now is       10.0 secs

     total energy              =   -2070.57365238 Ry
     estimated scf accuracy    <       0.15584877 Ry
[tb_dev] Currently allocated     3.63E+02 Mbytes, locked:    0 /  15
[tb_pin] Currently allocated     2.23E+00 Mbytes, locked:    0 /   1

     iteration #  6     ecut=    60.00 Ry     beta= 0.70
     Davidson diagonalization with overlap

---- Real-time Memory Report at c_bands before calling an iterative solver
          1509 MiB given to the printing process from OS
           863 MiB allocation reported by mallinfo(arena+hblkhd)
        268346 MiB available memory on the node where the printing process lives
     GPU memory used/free/total (MiB): 2419 / 13741 / 16160
------------------
     ethr =  4.14E-05,  avg # of iterations =  2.0

     negative rho (up, down):  2.414E-03 0.000E+00

     total cpu time spent up to now is       11.0 secs

     total energy              =   -2070.57054529 Ry
     estimated scf accuracy    <       0.06389481 Ry
[tb_dev] Currently allocated     3.63E+02 Mbytes, locked:    0 /  15
[tb_pin] Currently allocated     2.23E+00 Mbytes, locked:    0 /   1

     iteration #  7     ecut=    60.00 Ry     beta= 0.70
     Davidson diagonalization with overlap

---- Real-time Memory Report at c_bands before calling an iterative solver
          1516 MiB given to the printing process from OS
           873 MiB allocation reported by mallinfo(arena+hblkhd)
        268298 MiB available memory on the node where the printing process lives
     GPU memory used/free/total (MiB): 2419 / 13741 / 16160
------------------
     ethr =  1.70E-05,  avg # of iterations =  2.0

     negative rho (up, down):  2.467E-03 0.000E+00

     total cpu time spent up to now is       11.9 secs

     total energy              =   -2070.56258668 Ry
     estimated scf accuracy    <       0.02814305 Ry
[tb_dev] Currently allocated     3.63E+02 Mbytes, locked:    0 /  15
[tb_pin] Currently allocated     2.23E+00 Mbytes, locked:    0 /   1

     iteration #  8     ecut=    60.00 Ry     beta= 0.70
     Davidson diagonalization with overlap

---- Real-time Memory Report at c_bands before calling an iterative solver
          1517 MiB given to the printing process from OS
           870 MiB allocation reported by mallinfo(arena+hblkhd)
        268314 MiB available memory on the node where the printing process lives
     GPU memory used/free/total (MiB): 2419 / 13741 / 16160
------------------
     ethr =  7.48E-06,  avg # of iterations =  3.0

     negative rho (up, down):  2.448E-03 0.000E+00

     total cpu time spent up to now is       13.0 secs

     total energy              =   -2070.56902635 Ry
     estimated scf accuracy    <       0.00065210 Ry
[tb_dev] Currently allocated     3.63E+02 Mbytes, locked:    0 /  15
[tb_pin] Currently allocated     2.23E+00 Mbytes, locked:    0 /   1

     iteration #  9     ecut=    60.00 Ry     beta= 0.70
     Davidson diagonalization with overlap

---- Real-time Memory Report at c_bands before calling an iterative solver
          1519 MiB given to the printing process from OS
           873 MiB allocation reported by mallinfo(arena+hblkhd)
        268276 MiB available memory on the node where the printing process lives
     GPU memory used/free/total (MiB): 2419 / 13741 / 16160
------------------
     ethr =  1.73E-07,  avg # of iterations =  5.0

     negative rho (up, down):  2.421E-03 0.000E+00

     total cpu time spent up to now is       14.3 secs

     total energy              =   -2070.56973707 Ry
     estimated scf accuracy    <       0.00069728 Ry
[tb_dev] Currently allocated     3.63E+02 Mbytes, locked:    0 /  15
[tb_pin] Currently allocated     2.23E+00 Mbytes, locked:    0 /   1

     iteration # 10     ecut=    60.00 Ry     beta= 0.70
     Davidson diagonalization with overlap

---- Real-time Memory Report at c_bands before calling an iterative solver
          1521 MiB given to the printing process from OS
           876 MiB allocation reported by mallinfo(arena+hblkhd)
        268313 MiB available memory on the node where the printing process lives
     GPU memory used/free/total (MiB): 2419 / 13741 / 16160
------------------
     ethr =  1.73E-07,  avg # of iterations =  2.0

     negative rho (up, down):  2.397E-03 0.000E+00

     total cpu time spent up to now is       15.2 secs

     total energy              =   -2070.56951661 Ry
     estimated scf accuracy    <       0.00054670 Ry
[tb_dev] Currently allocated     3.63E+02 Mbytes, locked:    0 /  15
[tb_pin] Currently allocated     2.23E+00 Mbytes, locked:    0 /   1

     iteration # 11     ecut=    60.00 Ry     beta= 0.70
     Davidson diagonalization with overlap

---- Real-time Memory Report at c_bands before calling an iterative solver
          1521 MiB given to the printing process from OS
           877 MiB allocation reported by mallinfo(arena+hblkhd)
        268249 MiB available memory on the node where the printing process lives
     GPU memory used/free/total (MiB): 2419 / 13741 / 16160
------------------
     ethr =  1.45E-07,  avg # of iterations =  2.0

     negative rho (up, down):  2.390E-03 0.000E+00

     total cpu time spent up to now is       16.3 secs

     total energy              =   -2070.56957483 Ry
     estimated scf accuracy    <       0.00003320 Ry
[tb_dev] Currently allocated     3.63E+02 Mbytes, locked:    0 /  15
[tb_pin] Currently allocated     2.23E+00 Mbytes, locked:    0 /   1

     iteration # 12     ecut=    60.00 Ry     beta= 0.70
     Davidson diagonalization with overlap

---- Real-time Memory Report at c_bands before calling an iterative solver
          1521 MiB given to the printing process from OS
           878 MiB allocation reported by mallinfo(arena+hblkhd)
        268252 MiB available memory on the node where the printing process lives
     GPU memory used/free/total (MiB): 2419 / 13741 / 16160
------------------
     ethr =  8.83E-09,  avg # of iterations =  3.0

     negative rho (up, down):  2.391E-03 0.000E+00

     total cpu time spent up to now is       17.5 secs

     total energy              =   -2070.56959134 Ry
     estimated scf accuracy    <       0.00000709 Ry
[tb_dev] Currently allocated     3.63E+02 Mbytes, locked:    0 /  15
[tb_pin] Currently allocated     2.23E+00 Mbytes, locked:    0 /   1

     iteration # 13     ecut=    60.00 Ry     beta= 0.70
     Davidson diagonalization with overlap

---- Real-time Memory Report at c_bands before calling an iterative solver
          1522 MiB given to the printing process from OS
           879 MiB allocation reported by mallinfo(arena+hblkhd)
        268238 MiB available memory on the node where the printing process lives
     GPU memory used/free/total (MiB): 2419 / 13741 / 16160
------------------
     ethr =  1.89E-09,  avg # of iterations =  2.0

     negative rho (up, down):  2.392E-03 0.000E+00

     total cpu time spent up to now is       18.5 secs

     total energy              =   -2070.56958968 Ry
     estimated scf accuracy    <       0.00000562 Ry
[tb_dev] Currently allocated     3.63E+02 Mbytes, locked:    0 /  15
[tb_pin] Currently allocated     2.23E+00 Mbytes, locked:    0 /   1

     iteration # 14     ecut=    60.00 Ry     beta= 0.70
     Davidson diagonalization with overlap

---- Real-time Memory Report at c_bands before calling an iterative solver
          1524 MiB given to the printing process from OS
           880 MiB allocation reported by mallinfo(arena+hblkhd)
        268263 MiB available memory on the node where the printing process lives
     GPU memory used/free/total (MiB): 2419 / 13741 / 16160
------------------
     ethr =  1.49E-09,  avg # of iterations =  2.0

     negative rho (up, down):  2.393E-03 0.000E+00

     total cpu time spent up to now is       19.4 secs

     total energy              =   -2070.56958973 Ry
     estimated scf accuracy    <       0.00000092 Ry
[tb_dev] Currently allocated     3.63E+02 Mbytes, locked:    0 /  15
[tb_pin] Currently allocated     2.23E+00 Mbytes, locked:    0 /   1

     iteration # 15     ecut=    60.00 Ry     beta= 0.70
     Davidson diagonalization with overlap

---- Real-time Memory Report at c_bands before calling an iterative solver
          1524 MiB given to the printing process from OS
           881 MiB allocation reported by mallinfo(arena+hblkhd)
        268212 MiB available memory on the node where the printing process lives
     GPU memory used/free/total (MiB): 2419 / 13741 / 16160
------------------
     ethr =  2.44E-10,  avg # of iterations =  3.0

     negative rho (up, down):  2.393E-03 0.000E+00

     total cpu time spent up to now is       20.5 secs

     total energy              =   -2070.56958997 Ry
     estimated scf accuracy    <       0.00000004 Ry
[tb_dev] Currently allocated     3.63E+02 Mbytes, locked:    0 /  15
[tb_pin] Currently allocated     2.23E+00 Mbytes, locked:    0 /   1

     iteration # 16     ecut=    60.00 Ry     beta= 0.70
     Davidson diagonalization with overlap

---- Real-time Memory Report at c_bands before calling an iterative solver
          1525 MiB given to the printing process from OS
           882 MiB allocation reported by mallinfo(arena+hblkhd)
        268244 MiB available memory on the node where the printing process lives
     GPU memory used/free/total (MiB): 2419 / 13741 / 16160
------------------
     ethr =  1.01E-11,  avg # of iterations =  5.0

     negative rho (up, down):  2.393E-03 0.000E+00

     total cpu time spent up to now is       21.7 secs

     total energy              =   -2070.56958999 Ry
     estimated scf accuracy    <       0.00000010 Ry
[tb_dev] Currently allocated     3.63E+02 Mbytes, locked:    0 /  15
[tb_pin] Currently allocated     2.23E+00 Mbytes, locked:    0 /   1

     iteration # 17     ecut=    60.00 Ry     beta= 0.70
     Davidson diagonalization with overlap

---- Real-time Memory Report at c_bands before calling an iterative solver
          1531 MiB given to the printing process from OS
           889 MiB allocation reported by mallinfo(arena+hblkhd)
        268196 MiB available memory on the node where the printing process lives
     GPU memory used/free/total (MiB): 2419 / 13741 / 16160
------------------
     ethr =  1.01E-11,  avg # of iterations =  3.0

     negative rho (up, down):  2.393E-03 0.000E+00

     total cpu time spent up to now is       22.8 secs

     total energy              =   -2070.56958999 Ry
     estimated scf accuracy    <       0.00000002 Ry
[tb_dev] Currently allocated     3.63E+02 Mbytes, locked:    0 /  15
[tb_pin] Currently allocated     2.23E+00 Mbytes, locked:    0 /   1

     iteration # 18     ecut=    60.00 Ry     beta= 0.70
     Davidson diagonalization with overlap

---- Real-time Memory Report at c_bands before calling an iterative solver
          1534 MiB given to the printing process from OS
           890 MiB allocation reported by mallinfo(arena+hblkhd)
        268233 MiB available memory on the node where the printing process lives
     GPU memory used/free/total (MiB): 2419 / 13741 / 16160
------------------
     ethr =  6.11E-12,  avg # of iterations =  3.0

     negative rho (up, down):  2.393E-03 0.000E+00

     total cpu time spent up to now is       23.9 secs

     total energy              =   -2070.56959000 Ry
     estimated scf accuracy    <          1.2E-09 Ry
[tb_dev] Currently allocated     3.63E+02 Mbytes, locked:    0 /  15
[tb_pin] Currently allocated     2.23E+00 Mbytes, locked:    0 /   1

     iteration # 19     ecut=    60.00 Ry     beta= 0.70
     Davidson diagonalization with overlap

---- Real-time Memory Report at c_bands before calling an iterative solver
          1535 MiB given to the printing process from OS
           891 MiB allocation reported by mallinfo(arena+hblkhd)
        268175 MiB available memory on the node where the printing process lives
     GPU memory used/free/total (MiB): 2419 / 13741 / 16160
------------------
     ethr =  3.17E-13,  avg # of iterations =  3.0

     negative rho (up, down):  2.393E-03 0.000E+00

     total cpu time spent up to now is       24.9 secs

     total energy              =   -2070.56958999 Ry
     estimated scf accuracy    <          1.1E-09 Ry
[tb_dev] Currently allocated     3.63E+02 Mbytes, locked:    0 /  15
[tb_pin] Currently allocated     2.23E+00 Mbytes, locked:    0 /   1

     iteration # 20     ecut=    60.00 Ry     beta= 0.70
     Davidson diagonalization with overlap

---- Real-time Memory Report at c_bands before calling an iterative solver
          1538 MiB given to the printing process from OS
           892 MiB allocation reported by mallinfo(arena+hblkhd)
        268155 MiB available memory on the node where the printing process lives
     GPU memory used/free/total (MiB): 2419 / 13741 / 16160
------------------
     ethr =  3.00E-13,  avg # of iterations =  2.0

     negative rho (up, down):  2.393E-03 0.000E+00

     total cpu time spent up to now is       25.9 secs

     total energy              =   -2070.56958999 Ry
     estimated scf accuracy    <          1.7E-10 Ry
[tb_dev] Currently allocated     3.63E+02 Mbytes, locked:    0 /  15
[tb_pin] Currently allocated     2.23E+00 Mbytes, locked:    0 /   1

     iteration # 21     ecut=    60.00 Ry     beta= 0.70
     Davidson diagonalization with overlap

---- Real-time Memory Report at c_bands before calling an iterative solver
          1538 MiB given to the printing process from OS
           893 MiB allocation reported by mallinfo(arena+hblkhd)
        268140 MiB available memory on the node where the printing process lives
     GPU memory used/free/total (MiB): 2419 / 13741 / 16160
------------------
     ethr =  1.00E-13,  avg # of iterations =  2.0

     negative rho (up, down):  2.393E-03 0.000E+00

     total cpu time spent up to now is       26.8 secs

     End of self-consistent calculation

          k = 0.0000 0.0000 0.0000 (103459 PWs)   bands (ev):

   -25.3038 -25.2112 -25.1509 -25.0569 -24.8020 -24.6252 -24.4872 -24.3848
   -24.3225 -24.2950 -24.2721 -24.2298 -24.0965 -24.0461 -24.0369 -23.9849
   -23.9568 -23.8997 -23.8660 -23.8318 -23.7686 -23.7065 -23.6693 -23.5934
   -23.5741 -23.4780 -23.4199 -23.3116 -23.2778 -23.2115 -23.1831 -23.1383
   -23.1244 -23.0913 -22.7844 -22.7811 -22.7062 -22.6612 -22.4919 -22.3526
   -22.1986 -21.9969 -21.9097 -21.8909 -21.8409 -21.7385 -21.6512 -13.4317
   -13.2945 -13.2217 -13.1308 -12.9426 -12.8340 -12.6457 -12.5170 -12.4840
   -12.4474 -12.4255 -12.4071 -12.3445 -12.3153 -12.2633 -12.2592 -12.2165
   -12.1823 -12.0810 -12.0296 -11.9642 -11.9443 -11.8722 -11.8355 -11.8284
   -11.8104 -11.6735 -11.5967 -11.5812 -11.5182 -11.4530 -11.4310 -11.4159
   -11.3134 -11.1261 -11.1192 -10.9712 -10.9584 -10.8738 -10.7141 -10.5830
   -10.4297 -10.2372 -10.1936 -10.1597 -10.1333  -9.8940  -9.7214  -9.6896
    -9.6662  -9.5851  -9.3631  -9.3422  -9.2272  -9.0098  -8.9617  -8.9219
    -8.7673  -8.6929  -8.6608  -8.5906  -8.4801  -8.4332  -8.3565  -8.2637
    -8.2552  -8.1581  -8.1398  -8.1063  -8.0222  -7.9541  -7.9139  -7.8107
    -7.7222  -7.7053  -7.6303  -7.5951  -7.5307  -7.4510  -7.3959  -7.3732
    -7.3319  -7.2769  -7.1680  -7.1533  -7.1275  -7.0693  -7.0072  -6.9588
    -6.8996  -6.8617  -6.8054  -6.7673  -6.7001  -6.6232  -6.5609  -6.5308
    -6.4619  -6.4299  -6.4171  -6.3536  -6.3391  -6.3097  -6.2886  -6.2451
    -6.2136  -6.2008  -6.1549  -6.1339  -6.0716  -6.0451  -6.0096  -5.9917
    -5.9749  -5.9497  -5.8984  -5.8744  -5.8059  -5.7779  -5.7204  -5.6915
    -5.6431  -5.5973  -5.5710  -5.5621  -5.4757  -5.4453  -5.3599  -5.2467
    -5.1749  -5.1284  -5.0332  -4.8506  -4.6337  -4.5815  -4.4897  -4.3185
    -4.2922  -4.1174  -4.0971  -3.7373

     occupation numbers 
     1.0000   1.0000   1.0000   1.0000   1.0000   1.0000   1.0000   1.0000
     1.0000   1.0000   1.0000   1.0000   1.0000   1.0000   1.0000   1.0000
     1.0000   1.0000   1.0000   1.0000   1.0000   1.0000   1.0000   1.0000
     1.0000   1.0000   1.0000   1.0000   1.0000   1.0000   1.0000   1.0000
     1.0000   1.0000   1.0000   1.0000   1.0000   1.0000   1.0000   1.0000
     1.0000   1.0000   1.0000   1.0000   1.0000   1.0000   1.0000   1.0000
     1.0000   1.0000   1.0000   1.0000   1.0000   1.0000   1.0000   1.0000
     1.0000   1.0000   1.0000   1.0000   1.0000   1.0000   1.0000   1.0000
     1.0000   1.0000   1.0000   1.0000   1.0000   1.0000   1.0000   1.0000
     1.0000   1.0000   1.0000   1.0000   1.0000   1.0000   1.0000   1.0000
     1.0000   1.0000   1.0000   1.0000   1.0000   1.0000   1.0000   1.0000
     1.0000   1.0000   1.0000   1.0000   1.0000   1.0000   1.0000   1.0000
     1.0000   1.0000   1.0000   1.0000   1.0000   1.0000   1.0000   1.0000
     1.0000   1.0000   1.0000   1.0000   1.0000   1.0000   1.0000   1.0000
     1.0000   1.0000   1.0000   1.0000   1.0000   1.0000   1.0000   1.0000
     1.0000   1.0000   1.0000   1.0000   1.0000   1.0000   1.0000   1.0000
     1.0000   1.0000   1.0000   1.0000   1.0000   1.0000   1.0000   1.0000
     1.0000   1.0000   1.0000   1.0000   1.0000   1.0000   1.0000   1.0000
     1.0000   1.0000   1.0000   1.0000   1.0000   1.0000   1.0000   1.0000
     1.0000   1.0000   1.0000   1.0000   1.0000   1.0000   1.0000   1.0000
     1.0000   1.0000   1.0000   1.0000   1.0000   1.0000   1.0000   1.0000
     1.0000   1.0000   1.0000   1.0000   1.0000   1.0000   1.0000   1.0000
     1.0000   1.0000   1.0000   1.0000   1.0000   1.0000   1.0000   1.0000
     1.0000   1.0000   1.0000   1.0000

     highest occupied level (ev):    -3.7373

!    total energy              =   -2070.56958999 Ry
     estimated scf accuracy    <          5.0E-12 Ry

     The total energy is the sum of the following terms:
     one-electron contribution =   -5321.72564999 Ry
     hartree contribution      =    2754.42062122 Ry
     xc contribution           =    -415.19270061 Ry
     ewald contribution        =    1358.68791809 Ry
     one-center paw contrib.   =    -446.75977870 Ry
      -> PAW hartree energy AE =      84.91344527 Ry
      -> PAW hartree energy PS =     -84.50920031 Ry
      -> PAW xc energy AE      =     -51.01754091 Ry
      -> PAW xc energy PS      =      22.09760299 Ry
      -> total E_H with PAW    =    2754.82486617 Ry
      -> total E_XC with PAW   =    -444.11263853 Ry

     convergence has been achieved in  21 iterations

     negative rho (up, down):  2.393E-03 0.000E+00

     Forces acting on atoms (cartesian axes, Ry/au):

     atom    1 type  2   force =    -0.00336821    0.02010266    0.02530339
     atom    2 type  1   force =    -0.02614871   -0.02629844   -0.05011978
     atom    3 type  1   force =     0.02528041    0.01777843    0.03375620
     atom    4 type  2   force =     0.01686280   -0.00185446    0.01408503
     atom    5 type  1   force =    -0.05717557   -0.01884109   -0.01448232
     atom    6 type  1   force =     0.03889766    0.02865122    0.00064099
     atom    7 type  2   force =    -0.00465877   -0.00427593   -0.04400279
     atom    8 type  1   force =    -0.02201651    0.00394737    0.02456372
     atom    9 type  1   force =     0.01311436    0.00743207    0.01248937
     atom   10 type  2   force =     0.03007929    0.01569047   -0.00010354
     atom   11 type  1   force =     0.00383636    0.01838452   -0.03000438
     atom   12 type  1   force =    -0.03546637   -0.04158886    0.02284596
     atom   13 type  2   force =     0.01487510    0.00542246    0.00630970
     atom   14 type  1   force =    -0.03697975    0.00880112   -0.01475469
     atom   15 type  1   force =     0.03122197   -0.00271370    0.00097806
     atom   16 type  2   force =    -0.01267337   -0.02039304   -0.00689828
     atom   17 type  1   force =     0.00043450    0.03198226   -0.00134322
     atom   18 type  1   force =     0.02218943   -0.03070261   -0.01281081
     atom   19 type  2   force =    -0.00775169    0.01853724    0.01096679
     atom   20 type  1   force =    -0.02457305    0.00090187   -0.01458178
     atom   21 type  1   force =     0.03773203   -0.02904952    0.02122943
     atom   22 type  2   force =     0.00895923    0.00095131    0.01239636
     atom   23 type  1   force =    -0.01887490   -0.03062208    0.01960734
     atom   24 type  1   force =     0.01940953    0.02928094   -0.02677296
     atom   25 type  2   force =    -0.01850128    0.02851583    0.01726426
     atom   26 type  1   force =     0.03770639   -0.01574384   -0.02082875
     atom   27 type  1   force =    -0.00445022   -0.00946352    0.00008165
     atom   28 type  2   force =    -0.02714974    0.02235815    0.04249646
     atom   29 type  1   force =     0.02912770   -0.01317030   -0.04603497
     atom   30 type  1   force =    -0.01061447   -0.00493402    0.01582788
     atom   31 type  2   force =    -0.01494264    0.01484938   -0.04310798
     atom   32 type  1   force =     0.05731798    0.00265027    0.00101068
     atom   33 type  1   force =    -0.04107111   -0.01497107    0.03247208
     atom   34 type  2   force =    -0.00515548    0.01309827    0.01636168
     atom   35 type  1   force =     0.03849275   -0.02053642    0.00330284
     atom   36 type  1   force =    -0.04108818    0.00117302    0.00180696
     atom   37 type  2   force =     0.01314139   -0.01382758    0.03746819
     atom   38 type  1   force =    -0.04468291    0.00838603   -0.02853087
     atom   39 type  1   force =     0.01915044    0.00393168    0.02033802
     atom   40 type  2   force =    -0.00226511   -0.00011139    0.01444166
     atom   41 type  1   force =    -0.03328179   -0.00785295    0.03571517
     atom   42 type  1   force =     0.04400347    0.01138091   -0.04461695
     atom   43 type  2   force =    -0.02136371   -0.01176726   -0.01566849
     atom   44 type  1   force =    -0.00512249    0.00012756   -0.01513378
     atom   45 type  1   force =     0.00777392    0.01184177    0.02781656
     atom   46 type  2   force =     0.02765669    0.03245844    0.01541698
     atom   47 type  1   force =     0.01901218   -0.02065208    0.01837418
     atom   48 type  1   force =    -0.04637822   -0.01605470   -0.02318717
     atom   49 type  2   force =    -0.01746308   -0.00110292   -0.02800954
     atom   50 type  1   force =     0.03431557    0.01735071    0.04705669
     atom   51 type  1   force =    -0.01120962   -0.00991705   -0.03793845
     atom   52 type  2   force =     0.00315620   -0.01784797   -0.02738371
     atom   53 type  1   force =     0.01671562   -0.02590643   -0.00124943
     atom   54 type  1   force =    -0.02499244    0.03719338    0.01195554
     atom   55 type  2   force =     0.03882659    0.01189567    0.00548767
     atom   56 type  1   force =    -0.01285323   -0.01193463   -0.01699506
     atom   57 type  1   force =    -0.03852324    0.01732513    0.00360732
     atom   58 type  2   force =     0.00732052   -0.01156419   -0.00976368
     atom   59 type  1   force =    -0.01149192    0.00661962    0.01376988
     atom   60 type  1   force =    -0.00439186    0.00216311   -0.00645798
     atom   61 type  2   force =    -0.02346064    0.00262420   -0.01324865
     atom   62 type  1   force =     0.00576371    0.02111560   -0.01477583
     atom   63 type  1   force =     0.02327805   -0.01277047    0.01230329
     atom   64 type  2   force =     0.00135183    0.02257323    0.00421985
     atom   65 type  1   force =     0.01896887    0.00692800   -0.04795379
     atom   66 type  1   force =    -0.02233057   -0.02998749    0.03847236
     atom   67 type  2   force =     0.01013415   -0.02283407    0.03387879
     atom   68 type  1   force =     0.00343111    0.00292702    0.01998163
     atom   69 type  1   force =    -0.01547172    0.00232381   -0.04883103
     atom   70 type  2   force =    -0.00513764    0.02577422   -0.00707230
     atom   71 type  1   force =     0.01217273   -0.04638146   -0.00003049
     atom   72 type  1   force =     0.00837647    0.02211576    0.02947244
     atom   73 type  2   force =     0.00397414    0.04076555   -0.01091149
     atom   74 type  1   force =    -0.02131046    0.02247314   -0.00819502
     atom   75 type  1   force =     0.00131022   -0.04753888    0.02795832
     atom   76 type  2   force =     0.02476498   -0.00447232   -0.00671795
     atom   77 type  1   force =    -0.04483360   -0.02298480    0.05389798
     atom   78 type  1   force =    -0.00138235    0.02553963   -0.05148104
     atom   79 type  2   force =    -0.05245793   -0.00630085    0.00667306
     atom   80 type  1   force =     0.05041378    0.02071510    0.00077763
     atom   81 type  1   force =    -0.00913167   -0.02547050   -0.00176957
     atom   82 type  2   force =    -0.01896968   -0.02579079   -0.02298635
     atom   83 type  1   force =    -0.00369432    0.02819249    0.05088793
     atom   84 type  1   force =     0.03657758   -0.00106931   -0.03050429
     atom   85 type  2   force =    -0.00506900    0.00345731   -0.01638337
     atom   86 type  1   force =     0.02982916   -0.00868922    0.03757762
     atom   87 type  1   force =    -0.01560218    0.00996570   -0.02545732
     atom   88 type  2   force =     0.02686266    0.01974709    0.00601978
     atom   89 type  1   force =    -0.04187239    0.03222328    0.00177581
     atom   90 type  1   force =     0.01135688   -0.05512671   -0.00652813
     atom   91 type  2   force =     0.00875782   -0.02876024    0.01385145
     atom   92 type  1   force =    -0.01899401    0.03560870    0.04044371
     atom   93 type  1   force =     0.01096988   -0.01293049   -0.04980991
     atom   94 type  2   force =     0.02012357   -0.01265768    0.01248220
     atom   95 type  1   force =    -0.01437400   -0.02953677   -0.04908011
     atom   96 type  1   force =    -0.00388316    0.04896543    0.03775355
     atom   97 type  2   force =     0.04192442   -0.00147804   -0.02057680
     atom   98 type  1   force =    -0.01980138   -0.03668218    0.04028263
     atom   99 type  1   force =    -0.00749368    0.02210710   -0.01997640
     atom  100 type  2   force =     0.00500399    0.03363387   -0.01455311
     atom  101 type  1   force =    -0.04635060   -0.00190420   -0.01093210
     atom  102 type  1   force =     0.04798824   -0.02715369    0.02183463
     atom  103 type  2   force =     0.02085692   -0.01491639   -0.01921233
     atom  104 type  1   force =     0.04580096    0.02176891    0.02244611
     atom  105 type  1   force =    -0.04771488   -0.01180583   -0.02089716
     atom  106 type  2   force =    -0.03278917   -0.00865473   -0.02668666
     atom  107 type  1   force =     0.01666386   -0.04659163    0.02713630
     atom  108 type  1   force =     0.01290071    0.05605818   -0.00041218
     atom  109 type  2   force =     0.00163393    0.01634202    0.02479382
     atom  110 type  1   force =    -0.02536399   -0.04124981   -0.01891608
     atom  111 type  1   force =     0.01423870    0.02250113   -0.00743341
     atom  112 type  2   force =     0.03835760   -0.01486998    0.00792430
     atom  113 type  1   force =     0.01226346   -0.03016700   -0.00772775
     atom  114 type  1   force =    -0.05323451    0.03282647    0.00037068
     atom  115 type  2   force =    -0.01161628   -0.01005664   -0.00867896
     atom  116 type  1   force =    -0.04724379    0.00905437    0.01058836
     atom  117 type  1   force =     0.04851020    0.00186891   -0.00531130
     atom  118 type  2   force =    -0.01701263    0.02176336   -0.02599002
     atom  119 type  1   force =     0.03699416   -0.01793504    0.04333610
     atom  120 type  1   force =    -0.01974418   -0.00034708   -0.02232095
     atom  121 type  2   force =     0.03485227   -0.00157217    0.00718952
     atom  122 type  1   force =    -0.03149291   -0.03950920   -0.03058819
     atom  123 type  1   force =    -0.00898700    0.03850802    0.02504240
     atom  124 type  2   force =    -0.00823691   -0.00152797   -0.03433767
     atom  125 type  1   force =    -0.01861997   -0.02521221    0.03254579
     atom  126 type  1   force =     0.03767891    0.02231813   -0.00920512
     atom  127 type  2   force =    -0.00859629   -0.03565815    0.00541293
     atom  128 type  1   force =    -0.04621859    0.03322383    0.01213853
     atom  129 type  1   force =     0.05481716   -0.00019436   -0.01385029
     atom  130 type  2   force =     0.03063988   -0.01797943    0.02265384
     atom  131 type  1   force =     0.01994429    0.01298136    0.00857213
     atom  132 type  1   force =    -0.05096430    0.01029569   -0.03450633
     atom  133 type  2   force =     0.00041780   -0.01244874   -0.00561653
     atom  134 type  1   force =     0.03878210   -0.01328638    0.02579063
     atom  135 type  1   force =    -0.02392951    0.00470453   -0.03010336
     atom  136 type  2   force =    -0.00310070    0.00392244    0.02067546
     atom  137 type  1   force =     0.01464615   -0.03881827   -0.01148245
     atom  138 type  1   force =    -0.02197772    0.05446192   -0.00670665
     atom  139 type  2   force =     0.02153278    0.01166810    0.03582699
     atom  140 type  1   force =    -0.00829153    0.01302031   -0.04567739
     atom  141 type  1   force =     0.00195934   -0.01122757    0.03398396
     The non-local contrib.  to forces
     atom    1 type  2   force =     1.93236357   -0.13326738    0.02416574
     atom    2 type  1   force =    -0.06201140   -0.03452797   -0.06706282
     atom    3 type  1   force =    -0.04390047    0.05154921    0.06909339
     atom    4 type  2   force =     0.75497884   -1.30730574    1.62988097
     atom    5 type  1   force =    -0.08914209   -0.00470007   -0.03831772
     atom    6 type  1   force =     0.05656029    0.07037336   -0.03788332
     atom    7 type  2   force =    -0.52342967   -1.10237807   -1.36563165
     atom    8 type  1   force =    -0.02610778   -0.00499111    0.09414591
     atom    9 type  1   force =     0.06804028    0.06705518   -0.01724411
     atom   10 type  2   force =     2.00934161   -0.06818581    0.41710227
     atom   11 type  1   force =    -0.03375924    0.05967002   -0.06974684
     atom   12 type  1   force =    -0.06874661   -0.05488860    0.04235868
     atom   13 type  2   force =     0.18179020    0.89410551    1.66823136
     atom   14 type  1   force =    -0.08403004   -0.01228408   -0.04736176
     atom   15 type  1   force =     0.07410002   -0.04221012   -0.04314822
     atom   16 type  2   force =    -1.84310804   -0.31582606    0.02261588
     atom   17 type  1   force =     0.04524097    0.08532085    0.01722677
     atom   18 type  1   force =     0.06223048   -0.07373867   -0.01852898
     atom   19 type  2   force =     0.95252339    1.69979566   -0.35702870
     atom   20 type  1   force =    -0.09656586   -0.00908609   -0.01652067
     atom   21 type  1   force =     0.04019335   -0.07903993    0.04295981
     atom   22 type  2   force =    -1.17848193   -0.52171530   -1.35481977
     atom   23 type  1   force =     0.00661782   -0.04714182    0.08507781
     atom   24 type  1   force =     0.06026658    0.07385736   -0.00631657
     atom   25 type  2   force =    -1.24995821    0.73997001   -0.98418354
     atom   26 type  1   force =     0.08834153   -0.03548402   -0.02706334
     atom   27 type  1   force =    -0.01450737   -0.00534329    0.09516949
     atom   28 type  2   force =     0.80495777    0.08982676    1.60098950
     atom   29 type  1   force =     0.03586873   -0.02190345   -0.08897988
     atom   30 type  1   force =    -0.09239726    0.02515562   -0.00261275
     atom   31 type  2   force =    -0.82978834    0.59104943   -1.87882046
     atom   32 type  1   force =     0.09659442    0.00293770    0.01818884
     atom   33 type  1   force =    -0.05436007   -0.03071219    0.07656148
     atom   34 type  2   force =     0.30024607    1.45824130   -1.32370608
     atom   35 type  1   force =     0.07008370   -0.05758210    0.03426145
     atom   36 type  1   force =    -0.08552554   -0.01751255    0.03701695
     atom   37 type  2   force =    -0.09093950    0.71499369    1.79206279
     atom   38 type  1   force =    -0.06999545    0.00534847   -0.06969721
     atom   39 type  1   force =     0.08215229   -0.04639220   -0.03121550
     atom   40 type  2   force =     1.00108796   -0.66012936    1.81049706
     atom   41 type  1   force =    -0.09688188   -0.00803606   -0.01272839
     atom   42 type  1   force =     0.04644344    0.03673734   -0.07723044
     atom   43 type  2   force =    -0.78128229    1.49746439   -0.59717044
     atom   44 type  1   force =    -0.01537245   -0.08194990   -0.04609376
     atom   45 type  1   force =     0.06116560   -0.00898605    0.07484459
     atom   46 type  2   force =     0.50040667    2.00403166    0.31915935
     atom   47 type  1   force =     0.06213823   -0.06959044    0.02846451
     atom   48 type  1   force =    -0.08296727   -0.03407494   -0.03969902
     atom   49 type  2   force =    -1.97765288   -0.46666141    0.70971374
     atom   50 type  1   force =     0.07441151    0.03588690    0.05225218
     atom   51 type  1   force =     0.01848203   -0.00755428   -0.09471294
     atom   52 type  2   force =    -0.85063648   -1.10236436   -1.08970342
     atom   53 type  1   force =     0.08622474   -0.02437146    0.03803656
     atom   54 type  1   force =    -0.02512297    0.09225630    0.01861106
     atom   55 type  2   force =     0.38217609    0.22582194   -1.62382331
     atom   56 type  1   force =     0.03267881   -0.07430026    0.05154574
     atom   57 type  1   force =    -0.04560186    0.06639503    0.05556437
     atom   58 type  2   force =     1.41401696    0.08657966    0.96945475
     atom   59 type  1   force =    -0.09069281    0.01730094    0.02858990
     atom   60 type  1   force =     0.00517581   -0.03137508   -0.09028284
     atom   61 type  2   force =    -1.61159877   -0.42823673    0.73985797
     atom   62 type  1   force =     0.00437584    0.05440894   -0.07841519
     atom   63 type  1   force =     0.08770475   -0.02589795    0.03395615
     atom   64 type  2   force =     0.30133605    2.01162073    0.92187001
     atom   65 type  1   force =     0.01355849   -0.01591558   -0.09492467
     atom   66 type  1   force =    -0.03002185   -0.07831144    0.05030760
     atom   67 type  2   force =     0.44620311   -1.78424516    0.62841868
     atom   68 type  1   force =    -0.00738300    0.07287131    0.06587558
     atom   69 type  1   force =    -0.01833173    0.02929036   -0.09265749
     atom   70 type  2   force =    -0.94236692    0.84405281   -1.48087538
     atom   71 type  1   force =     0.01332848   -0.09592779    0.01212181
     atom   72 type  1   force =     0.03484376    0.05297239    0.07201288
     atom   73 type  2   force =    -1.38779282    1.07819221    0.63485026
     atom   74 type  1   force =     0.06534374    0.04162964   -0.06117543
     atom   75 type  1   force =     0.01951609   -0.09520943    0.01745967
     atom   76 type  2   force =     1.83890394    0.89391362    0.95480480
     atom   77 type  1   force =    -0.06644724   -0.05254446    0.04666474
     atom   78 type  1   force =    -0.01336833    0.00553569   -0.09682865
     atom   79 type  2   force =    -1.39761988    0.67717201    1.38323806
     atom   80 type  1   force =     0.09206071    0.02973860   -0.01295894
     atom   81 type  1   force =    -0.02876293   -0.06754386   -0.06302473
     atom   82 type  2   force =    -0.03902028   -2.16590992    0.18718941
     atom   83 type  1   force =    -0.01665931    0.06420869    0.07149692
     atom   84 type  1   force =     0.00443078    0.04006077   -0.08971651
     atom   85 type  2   force =     0.90022085    1.20551774   -0.97109278
     atom   86 type  1   force =     0.03258858   -0.04664002    0.08127021
     atom   87 type  1   force =    -0.08659590   -0.03364286   -0.02949344
     atom   88 type  2   force =     1.91979496    1.23240084    0.18083345
     atom   89 type  1   force =    -0.08950889    0.04086901    0.00453076
     atom   90 type  1   force =     0.00034210   -0.09762190   -0.00774992
     atom   91 type  2   force =     1.14134433   -1.64844057    1.01968105
     atom   92 type  1   force =    -0.03445602    0.07849513    0.04757073
     atom   93 type  1   force =    -0.02570432   -0.00438011   -0.09516154
     atom   94 type  2   force =     2.21500091   -0.21033267    0.01659767
     atom   95 type  1   force =    -0.05865213   -0.04504795   -0.06461240
     atom   96 type  1   force =    -0.04825550    0.04946506    0.06882759
     atom   97 type  2   force =     2.09870710    0.00300646   -0.52373040
     atom   98 type  1   force =    -0.03827423   -0.05431107    0.07118452
     atom   99 type  1   force =    -0.06474937    0.05837712   -0.04528911
     atom  100 type  2   force =     0.49200022    2.05084223   -0.80523870
     atom  101 type  1   force =    -0.09094216   -0.03708002   -0.00413754
     atom  102 type  1   force =     0.06625258   -0.05959719    0.03925522
     atom  103 type  2   force =     0.63137624   -0.59432928   -1.79620101
     atom  104 type  1   force =     0.06046964    0.03594061    0.06907758
     atom  105 type  1   force =    -0.09276682   -0.00072961    0.02842332
     atom  106 type  2   force =    -1.44418786   -0.41700793   -1.58279345
     atom  107 type  1   force =     0.04123778   -0.07090407    0.05421190
     atom  108 type  1   force =     0.03165397    0.09045322    0.02127550
     atom  109 type  2   force =    -0.75608480    0.79261829    1.50440924
     atom  110 type  1   force =    -0.03318950   -0.08058498   -0.04478278
     atom  111 type  1   force =     0.07933698    0.03864589   -0.04366108
     atom  112 type  2   force =     1.80010006    1.19441284    0.51971651
     atom  113 type  1   force =     0.01382969   -0.09320124   -0.02451772
     atom  114 type  1   force =    -0.09179841    0.02755240    0.00277562
     atom  115 type  2   force =    -0.60833007    0.33573441   -2.02891618
     atom  116 type  1   force =    -0.06496999   -0.01458857    0.07188317
     atom  117 type  1   force =     0.09280282   -0.00581339    0.02943802
     atom  118 type  2   force =    -0.03745519    2.22858974   -0.35033995
     atom  119 type  1   force =     0.05108792   -0.04689775    0.06648129
     atom  120 type  1   force =    -0.05381239   -0.05719328   -0.05792059
     atom  121 type  2   force =     2.15685415   -0.68459894    0.49069667
     atom  122 type  1   force =    -0.06388429   -0.05327421   -0.04979391
     atom  123 type  1   force =    -0.03199592    0.08760984    0.02802197
     atom  124 type  2   force =    -0.21356681   -1.01991431   -1.85195977
     atom  125 type  1   force =    -0.04602299   -0.02585154    0.08256724
     atom  126 type  1   force =     0.04543674    0.08772987    0.00500415
     atom  127 type  2   force =    -0.59513253   -2.21153667    0.18491156
     atom  128 type  1   force =    -0.06493299    0.07265207    0.00901269
     atom  129 type  1   force =     0.09027971    0.02895142   -0.02534652
     atom  130 type  2   force =    -0.12982521   -1.08739365    1.66529802
     atom  131 type  1   force =     0.08479573    0.03730362   -0.02297271
     atom  132 type  1   force =    -0.06939548    0.02013911   -0.06432107
     atom  133 type  2   force =    -1.43539829   -0.83523596    1.18451066
     atom  134 type  1   force =     0.09402247    0.00334766    0.02371197
     atom  135 type  1   force =    -0.01898918    0.02989705   -0.09172103
     atom  136 type  2   force =     1.39482604    0.43574655   -1.28497507
     atom  137 type  1   force =    -0.02102665   -0.09091542    0.02902158
     atom  138 type  1   force =    -0.05350491    0.06828757    0.04674965
     atom  139 type  2   force =    -1.63893399    0.10500199    0.60814858
     atom  140 type  1   force =     0.03185427    0.01705705   -0.09138473
     atom  141 type  1   force =     0.07219663   -0.01775918    0.06038666
     The ionic contribution  to forces
     atom    1 type  2   force =     0.16515149    9.38021617   10.37337736
     atom    2 type  1   force =     2.84765973    2.57688116    3.64789255
     atom    3 type  1   force =     1.65386169   -0.05163776   -0.37548746
     atom    4 type  2   force =     5.23300279   10.79284487  -11.50942008
     atom    5 type  1   force =     4.26153897    1.69264279    0.02136723
     atom    6 type  1   force =    -0.84690097   -0.62119760   -0.75707394
     atom    7 type  2   force =    -8.35984047   10.47647988    2.52102049
     atom    8 type  1   force =    -0.64938289    1.28110444   -3.03543958
     atom    9 type  1   force =    -3.55852484   -0.41229617    0.47038249
     atom   10 type  2   force =     1.00480614   11.22884967   -5.45362840
     atom   11 type  1   force =     1.61919765    0.01492038    1.15836551
     atom   12 type  1   force =     3.29512283    3.36009520   -2.25257973
     atom   13 type  2   force =     1.85600015    1.10437043  -15.04316712
     atom   14 type  1   force =     2.76948356    0.77463163   -0.77375133
     atom   15 type  1   force =    -1.90067194    1.87639348   -0.71786366
     atom   16 type  2   force =     1.69712973    1.85514299    0.40293001
     atom   17 type  1   force =    -1.54404303   -2.37850735   -0.33992346
     atom   18 type  1   force =    -2.50172455    2.42457551    0.92608966
     atom   19 type  2   force =    -7.23212974   -7.43613753   -6.93826148
     atom   20 type  1   force =     2.33342527   -0.29213924   -0.48063505
     atom   21 type  1   force =    -2.44617458    1.61507710   -2.77857958
     atom   22 type  2   force =     3.96437220    1.21393489   11.95641330
     atom   23 type  1   force =     0.30859452    1.66098321   -1.11038974
     atom   24 type  1   force =    -1.41540318   -2.22683800    1.79989412
     atom   25 type  2   force =    -3.52534658   -3.89183917    0.49069722
     atom   26 type  1   force =    -3.86438960    0.79453070    0.67860259
     atom   27 type  1   force =    -0.62368609   -0.37884751   -3.14663828
     atom   28 type  2   force =   -11.53824244   -0.30701252   10.17328218
     atom   29 type  1   force =    -2.88925612    0.69311639    4.97946863
     atom   30 type  1   force =     1.05807263   -0.79075810    1.95176863
     atom   31 type  2   force =    -7.85215753    3.44580997   -6.87934436
     atom   32 type  1   force =    -4.66033151    0.51810847   -1.94285056
     atom   33 type  1   force =     0.63478128    1.83402119   -3.95634049
     atom   34 type  2   force =    -8.59210140  -12.62245096   12.56351995
     atom   35 type  1   force =    -3.62333423   -0.07441898    0.26972308
     atom   36 type  1   force =     1.24687971   -1.39951284    0.44940125
     atom   37 type  2   force =     9.27312478  -12.41699708    3.02040228
     atom   38 type  1   force =     3.96855509   -1.86446135    3.46553502
     atom   39 type  1   force =    -1.37389800   -0.55021671    1.78287774
     atom   40 type  2   force =    -9.37082552   10.38557226    5.61298687
     atom   41 type  1   force =     2.09642819    2.14381527    1.78514318
     atom   42 type  1   force =    -2.89383884    0.15217222    3.91354781
     atom   43 type  2   force =    -3.73641191    2.44856833   -6.18331008
     atom   44 type  1   force =    -0.21443210    3.07115737    0.13701440
     atom   45 type  1   force =    -2.65818644    1.04914335   -3.51771491
     atom   46 type  2   force =    11.45608663    6.29158282    3.28660730
     atom   47 type  1   force =     0.43388335    4.04623566   -0.37812660
     atom   48 type  1   force =     4.42300088    2.64499257    2.10122751
     atom   49 type  2   force =    13.60156654   -8.84816737   -8.27561954
     atom   50 type  1   force =    -1.02798784   -2.83424050   -3.27657136
     atom   51 type  1   force =     1.37839322   -1.56565449    1.93839812
     atom   52 type  2   force =     9.06785383   -2.30766423    1.67796258
     atom   53 type  1   force =    -1.54832751    0.32818759   -1.05806921
     atom   54 type  1   force =     2.34626706   -3.56972323   -0.83303977
     atom   55 type  2   force =    -0.56958745  -10.24171922    7.12782216
     atom   56 type  1   force =    -1.08921158    0.73216518   -1.31911051
     atom   57 type  1   force =     1.65928587   -3.52243001   -0.89921310
     atom   58 type  2   force =     3.56251830    4.99766388   -9.77207467
     atom   59 type  1   force =     3.70960979    0.05686823   -2.29341472
     atom   60 type  1   force =     1.13322517    2.02499143    1.40215247
     atom   61 type  2   force =    -6.87137330    6.33510711    3.46945817
     atom   62 type  1   force =    -1.90319792   -0.42277354    3.41794776
     atom   63 type  1   force =    -3.93361267    1.78616071   -0.13518520
     atom   64 type  2   force =    -9.66959916  -11.39985661   -8.60964812
     atom   65 type  1   force =    -2.12228924   -0.72520542    1.97511909
     atom   66 type  1   force =    -0.59183739    1.13948196   -2.95132410
     atom   67 type  2   force =    -3.84384033   -3.42368642   11.50797883
     atom   68 type  1   force =    -0.17997230   -3.32038133    0.20077800
     atom   69 type  1   force =     0.11239505   -2.29266073    5.24615085
     atom   70 type  2   force =    12.85365788   -0.61005083    9.05632940
     atom   71 type  1   force =     1.30100491    3.22823453    0.33796676
     atom   72 type  1   force =     0.52968674   -1.24233859   -0.95082388
     atom   73 type  2   force =     9.29211845   11.35293291    2.10355234
     atom   74 type  1   force =    -0.81592703    0.77111672    2.81933293
     atom   75 type  1   force =     0.49372982    5.26539435    0.13703340
     atom   76 type  2   force =   -11.16923805  -10.54156879   -2.90908612
     atom   77 type  1   force =     0.60007315    0.10168697   -1.98272633
     atom   78 type  1   force =    -0.62939204   -2.04637756    3.61699878
     atom   79 type  2   force =   -10.16335161   -6.48034985    2.20357488
     atom   80 type  1   force =    -4.81880002   -1.94153665    1.37393036
     atom   81 type  1   force =    -1.50961009    1.33380652    2.82371940
     atom   82 type  2   force =    10.31006805    7.03930558   -9.77087745
     atom   83 type  1   force =     2.10332663   -2.13532565   -4.14431703
     atom   84 type  1   force =     1.36553034   -0.62155899    1.26755478
     atom   85 type  2   force =    -7.15130614    7.95973773   -4.82066005
     atom   86 type  1   force =    -2.31596232    3.04501839   -3.63830252
     atom   87 type  1   force =     2.00934027    2.43148611   -0.17582477
     atom   88 type  2   force =    -4.41435121    5.48136487   -8.67635460
[...]
     atom   86 type  1   force =     0.00000000    0.00000000    0.00000000
     atom   87 type  1   force =     0.00000000    0.00000000    0.00000000
     atom   88 type  2   force =     0.00000000    0.00000000    0.00000000
     atom   89 type  1   force =     0.00000000    0.00000000    0.00000000
     atom   90 type  1   force =     0.00000000    0.00000000    0.00000000
     atom   91 type  2   force =     0.00000000    0.00000000    0.00000000
     atom   92 type  1   force =     0.00000000    0.00000000    0.00000000
     atom   93 type  1   force =     0.00000000    0.00000000    0.00000000
     atom   94 type  2   force =     0.00000000    0.00000000    0.00000000
     atom   95 type  1   force =     0.00000000    0.00000000    0.00000000
     atom   96 type  1   force =     0.00000000    0.00000000    0.00000000
     atom   97 type  2   force =     0.00000000    0.00000000    0.00000000
     atom   98 type  1   force =     0.00000000    0.00000000    0.00000000
     atom   99 type  1   force =     0.00000000    0.00000000    0.00000000
     atom  100 type  2   force =     0.00000000    0.00000000    0.00000000
     atom  101 type  1   force =     0.00000000    0.00000000    0.00000000
     atom  102 type  1   force =     0.00000000    0.00000000    0.00000000
     atom  103 type  2   force =     0.00000000    0.00000000    0.00000000
     atom  104 type  1   force =     0.00000000    0.00000000    0.00000000
     atom  105 type  1   force =     0.00000000    0.00000000    0.00000000
     atom  106 type  2   force =     0.00000000    0.00000000    0.00000000
     atom  107 type  1   force =     0.00000000    0.00000000    0.00000000
     atom  108 type  1   force =     0.00000000    0.00000000    0.00000000
     atom  109 type  2   force =     0.00000000    0.00000000    0.00000000
     atom  110 type  1   force =     0.00000000    0.00000000    0.00000000
     atom  111 type  1   force =     0.00000000    0.00000000    0.00000000
     atom  112 type  2   force =     0.00000000    0.00000000    0.00000000
     atom  113 type  1   force =     0.00000000    0.00000000    0.00000000
     atom  114 type  1   force =     0.00000000    0.00000000    0.00000000
     atom  115 type  2   force =     0.00000000    0.00000000    0.00000000
     atom  116 type  1   force =     0.00000000    0.00000000    0.00000000
     atom  117 type  1   force =     0.00000000    0.00000000    0.00000000
     atom  118 type  2   force =     0.00000000    0.00000000    0.00000000
     atom  119 type  1   force =     0.00000000    0.00000000    0.00000000
     atom  120 type  1   force =     0.00000000    0.00000000    0.00000000
     atom  121 type  2   force =     0.00000000    0.00000000    0.00000000
     atom  122 type  1   force =     0.00000000    0.00000000    0.00000000
     atom  123 type  1   force =     0.00000000    0.00000000    0.00000000
     atom  124 type  2   force =     0.00000000    0.00000000    0.00000000
     atom  125 type  1   force =     0.00000000    0.00000000    0.00000000
     atom  126 type  1   force =     0.00000000    0.00000000    0.00000000
     atom  127 type  2   force =     0.00000000    0.00000000    0.00000000
     atom  128 type  1   force =     0.00000000    0.00000000    0.00000000
     atom  129 type  1   force =     0.00000000    0.00000000    0.00000000
     atom  130 type  2   force =     0.00000000    0.00000000    0.00000000
     atom  131 type  1   force =     0.00000000    0.00000000    0.00000000
     atom  132 type  1   force =     0.00000000    0.00000000    0.00000000
     atom  133 type  2   force =     0.00000000    0.00000000    0.00000000
     atom  134 type  1   force =     0.00000000    0.00000000    0.00000000
     atom  135 type  1   force =     0.00000000    0.00000000    0.00000000
     atom  136 type  2   force =     0.00000000    0.00000000    0.00000000
     atom  137 type  1   force =     0.00000000    0.00000000    0.00000000
     atom  138 type  1   force =     0.00000000    0.00000000    0.00000000
     atom  139 type  2   force =     0.00000000    0.00000000    0.00000000
     atom  140 type  1   force =     0.00000000    0.00000000    0.00000000
     atom  141 type  1   force =     0.00000000    0.00000000    0.00000000
     The SCF correction term to forces
     atom    1 type  2   force =     0.00000027    0.00000006    0.00000015
     atom    2 type  1   force =     0.00000006    0.00000004    0.00000007
     atom    3 type  1   force =     0.00000004   -0.00000003   -0.00000005
     atom    4 type  2   force =     0.00000013   -0.00000010    0.00000019
     atom    5 type  1   force =     0.00000012   -0.00000000    0.00000007
     atom    6 type  1   force =    -0.00000005   -0.00000010    0.00000006
     atom    7 type  2   force =     0.00000006   -0.00000008   -0.00000009
     atom    8 type  1   force =     0.00000001   -0.00000001   -0.00000003
     atom    9 type  1   force =    -0.00000001   -0.00000002   -0.00000001
     atom   10 type  2   force =     0.00000014    0.00000004    0.00000009
     atom   11 type  1   force =     0.00000001    0.00000001    0.00000001
     atom   12 type  1   force =     0.00000003    0.00000003   -0.00000001
     atom   13 type  2   force =     0.00000001    0.00000012    0.00000010
     atom   14 type  1   force =     0.00000004    0.00000001    0.00000002
     atom   15 type  1   force =    -0.00000002    0.00000003    0.00000002
     atom   16 type  2   force =    -0.00000013    0.00000000    0.00000004
     atom   17 type  1   force =    -0.00000003   -0.00000003   -0.00000000
     atom   18 type  1   force =    -0.00000004    0.00000004    0.00000001
     atom   19 type  2   force =     0.00000005    0.00000011    0.00000004
     atom   20 type  1   force =     0.00000003    0.00000002    0.00000001
     atom   21 type  1   force =    -0.00000001    0.00000003   -0.00000001
     atom   22 type  2   force =    -0.00000008   -0.00000010   -0.00000008
     atom   23 type  1   force =     0.00000001    0.00000001   -0.00000001
     atom   24 type  1   force =     0.00000002   -0.00000001    0.00000001
     atom   25 type  2   force =    -0.00000008    0.00000020   -0.00000006
     atom   26 type  1   force =    -0.00000009    0.00000006    0.00000002
     atom   27 type  1   force =     0.00000001    0.00000003   -0.00000009
     atom   28 type  2   force =    -0.00000010    0.00000004    0.00000024
     atom   29 type  1   force =    -0.00000004    0.00000001    0.00000008
     atom   30 type  1   force =     0.00000004   -0.00000001    0.00000003
     atom   31 type  2   force =    -0.00000007    0.00000009   -0.00000022
     atom   32 type  1   force =    -0.00000011    0.00000001   -0.00000004
     atom   33 type  1   force =     0.00000005    0.00000004   -0.00000010
     atom   34 type  2   force =     0.00000012    0.00000013   -0.00000007
     atom   35 type  1   force =    -0.00000003    0.00000002   -0.00000001
     atom   36 type  1   force =     0.00000006    0.00000001   -0.00000001
     atom   37 type  2   force =    -0.00000003    0.00000006    0.00000012
     atom   38 type  1   force =     0.00000002   -0.00000000    0.00000004
     atom   39 type  1   force =    -0.00000001   -0.00000000    0.00000001
     atom   40 type  2   force =     0.00000009   -0.00000008    0.00000040
     atom   41 type  1   force =     0.00000008    0.00000002    0.00000003
     atom   42 type  1   force =    -0.00000004   -0.00000002    0.00000010
     atom   43 type  2   force =    -0.00000006    0.00000002   -0.00000005
     atom   44 type  1   force =     0.00000000    0.00000005    0.00000003
     atom   45 type  1   force =    -0.00000002    0.00000001   -0.00000002
     atom   46 type  2   force =     0.00000005    0.00000010    0.00000006
     atom   47 type  1   force =     0.00000001    0.00000005   -0.00000000
     atom   48 type  1   force =     0.00000004    0.00000003    0.00000002
     atom   49 type  2   force =    -0.00000026   -0.00000004   -0.00000000
     atom   50 type  1   force =    -0.00000011   -0.00000006   -0.00000006
     atom   51 type  1   force =    -0.00000005    0.00000001    0.00000013
     atom   52 type  2   force =     0.00000005   -0.00000014   -0.00000014
     atom   53 type  1   force =     0.00000001    0.00000000   -0.00000001
     atom   54 type  1   force =     0.00000001   -0.00000002   -0.00000001
     atom   55 type  2   force =     0.00000009    0.00000003    0.00000002
     atom   56 type  1   force =     0.00000003   -0.00000003    0.00000002
     atom   57 type  1   force =     0.00000003    0.00000002    0.00000003
     atom   58 type  2   force =     0.00000023   -0.00000006    0.00000001
     atom   59 type  1   force =     0.00000007   -0.00000002   -0.00000002
     atom   60 type  1   force =     0.00000002    0.00000002    0.00000006
     atom   61 type  2   force =    -0.00000008   -0.00000001   -0.00000002
     atom   62 type  1   force =    -0.00000002   -0.00000000    0.00000002
     atom   63 type  1   force =    -0.00000002    0.00000000   -0.00000001
     atom   64 type  2   force =    -0.00000008    0.00000011    0.00000011
     atom   65 type  1   force =    -0.00000002    0.00000001    0.00000003
     atom   66 type  1   force =    -0.00000000    0.00000000   -0.00000001
     atom   67 type  2   force =     0.00000023   -0.00000034    0.00000037
     atom   68 type  1   force =     0.00000003   -0.00000010   -0.00000003
     atom   69 type  1   force =     0.00000004   -0.00000005    0.00000011
     atom   70 type  2   force =    -0.00000022    0.00000025   -0.00000024
     atom   71 type  1   force =    -0.00000002    0.00000006   -0.00000002
     atom   72 type  1   force =    -0.00000003   -0.00000003   -0.00000007
     atom   73 type  2   force =    -0.00000025    0.00000043    0.00000000
     atom   74 type  1   force =    -0.00000006   -0.00000000    0.00000005
     atom   75 type  1   force =    -0.00000003    0.00000009   -0.00000002
     atom   76 type  2   force =     0.00000015   -0.00000002    0.00000005
     atom   77 type  1   force =     0.00000003    0.00000001   -0.00000003
     atom   78 type  1   force =     0.00000002   -0.00000002    0.00000005
     atom   79 type  2   force =    -0.00000033    0.00000001    0.00000010
     atom   80 type  1   force =    -0.00000007   -0.00000001    0.00000001
     atom   81 type  1   force =    -0.00000003    0.00000003    0.00000003
     atom   82 type  2   force =    -0.00000015   -0.00000014   -0.00000010
     atom   83 type  1   force =    -0.00000001   -0.00000006   -0.00000005
     atom   84 type  1   force =    -0.00000003   -0.00000003    0.00000002
     atom   85 type  2   force =    -0.00000003    0.00000003   -0.00000006
     atom   86 type  1   force =    -0.00000002    0.00000001   -0.00000002
     atom   87 type  1   force =     0.00000004    0.00000002    0.00000001
     atom   88 type  2   force =     0.00000021    0.00000015    0.00000004
     atom   89 type  1   force =     0.00000015   -0.00000004   -0.00000000
     atom   90 type  1   force =     0.00000003    0.00000015    0.00000002
     atom   91 type  2   force =     0.00000015   -0.00000022    0.00000006
     atom   92 type  1   force =     0.00000003   -0.00000006   -0.00000001
     atom   93 type  1   force =     0.00000003   -0.00000002    0.00000005
     atom   94 type  2   force =     0.00000049   -0.00000006    0.00000011
     atom   95 type  1   force =     0.00000015    0.00000008    0.00000014
     atom   96 type  1   force =     0.00000014   -0.00000012   -0.00000012
     atom   97 type  2   force =     0.00000038    0.00000002   -0.00000003
     atom   98 type  1   force =     0.00000008    0.00000006   -0.00000007
     atom   99 type  1   force =     0.00000008   -0.00000003    0.00000003
     atom  100 type  2   force =    -0.00000001    0.00000044   -0.00000016
     atom  101 type  1   force =     0.00000011    0.00000008   -0.00000000
     atom  102 type  1   force =    -0.00000009    0.00000011   -0.00000006
     atom  103 type  2   force =     0.00000013   -0.00000016   -0.00000023
     atom  104 type  1   force =    -0.00000006   -0.00000007   -0.00000011
     atom  105 type  1   force =     0.00000013   -0.00000002   -0.00000005
     atom  106 type  2   force =    -0.00000016   -0.00000005   -0.00000015
     atom  107 type  1   force =    -0.00000004    0.00000003   -0.00000004
     atom  108 type  1   force =    -0.00000004   -0.00000005   -0.00000002
     atom  109 type  2   force =     0.00000003    0.00000003    0.00000005
     atom  110 type  1   force =     0.00000001   -0.00000001   -0.00000001
     atom  111 type  1   force =     0.00000001    0.00000000    0.00000000
     atom  112 type  2   force =     0.00000019   -0.00000009    0.00000003
     atom  113 type  1   force =     0.00000001    0.00000004    0.00000002
     atom  114 type  1   force =     0.00000008   -0.00000004    0.00000000
     atom  115 type  2   force =    -0.00000030    0.00000009   -0.00000052
     atom  116 type  1   force =     0.00000006    0.00000001   -0.00000011
     atom  117 type  1   force =    -0.00000013    0.00000001   -0.00000006
     atom  118 type  2   force =    -0.00000005    0.00000024   -0.00000018
     atom  119 type  1   force =    -0.00000002    0.00000004   -0.00000005
     atom  120 type  1   force =     0.00000001    0.00000003   -0.00000001
     atom  121 type  2   force =     0.00000022   -0.00000004    0.00000002
     atom  122 type  1   force =     0.00000008    0.00000004    0.00000004
     atom  123 type  1   force =     0.00000004   -0.00000006   -0.00000002
     atom  124 type  2   force =    -0.00000008   -0.00000009   -0.00000047
     atom  125 type  1   force =     0.00000001    0.00000001   -0.00000006
     atom  126 type  1   force =    -0.00000004   -0.00000003   -0.00000003
     atom  127 type  2   force =    -0.00000006   -0.00000019   -0.00000000
     atom  128 type  1   force =     0.00000005   -0.00000008   -0.00000001
     atom  129 type  1   force =    -0.00000008   -0.00000004    0.00000002
     atom  130 type  2   force =     0.00000001   -0.00000021    0.00000023
     atom  131 type  1   force =    -0.00000007   -0.00000005    0.00000002
     atom  132 type  1   force =     0.00000007   -0.00000003    0.00000007
     atom  133 type  2   force =    -0.00000010   -0.00000012    0.00000020
     atom  134 type  1   force =    -0.00000004   -0.00000002    0.00000001
     atom  135 type  1   force =    -0.00000000   -0.00000001    0.00000002
     atom  136 type  2   force =     0.00000015    0.00000013    0.00000003
     atom  137 type  1   force =     0.00000003    0.00000005   -0.00000001
     atom  138 type  1   force =     0.00000004   -0.00000004    0.00000001
     atom  139 type  2   force =     0.00000005    0.00000005   -0.00000002
     atom  140 type  1   force =     0.00000001   -0.00000001    0.00000001
     atom  141 type  1   force =    -0.00000001    0.00000001   -0.00000002

     Total force =     0.511387     Total SCF correction =     0.000002

     Writing all to output data dir ./007.save/
 
     init_run     :      4.13s CPU      3.88s WALL (       1 calls)
     electrons    :     31.09s CPU     22.77s WALL (       1 calls)
     forces       :      1.55s CPU      0.99s WALL (       1 calls)

     Called by init_run:
     wfcinit      :      0.34s CPU      0.93s WALL (       1 calls)
                                        0.93s GPU  (       1 calls)
     wfcinit:atom :      0.00s CPU      0.00s WALL (       1 calls)
                                        0.00s GPU  (       1 calls)
     wfcinit:wfcr :      0.29s CPU      0.86s WALL (       1 calls)
                                        0.86s GPU  (       1 calls)
     potinit      :      1.63s CPU      0.62s WALL (       1 calls)
     hinit0       :      1.06s CPU      0.60s WALL (       1 calls)

     Called by electrons:
     c_bands      :      7.23s CPU      9.17s WALL (      21 calls)
     sum_band     :      3.67s CPU      3.68s WALL (      21 calls)
     v_of_rho     :     12.25s CPU      4.18s WALL (      22 calls)
     v_h          :      0.76s CPU      0.32s WALL (      22 calls)
     v_xc         :     12.02s CPU      4.03s WALL (      23 calls)
     newd         :      1.14s CPU      3.31s WALL (      22 calls)
                                        3.31s GPU  (      22 calls)
     PAW_pot      :      5.61s CPU      2.22s WALL (      22 calls)
     mix_rho      :      1.62s CPU      0.82s WALL (      21 calls)

     Called by c_bands:
     init_us_2_gp :      0.14s CPU      0.16s WALL (      43 calls)
     regterg      :      7.02s CPU      8.94s WALL (      21 calls)

     Called by sum_band:
     sum_band:wei :      0.00s CPU      0.00s WALL (      21 calls)
                                        0.00s GPU  (      21 calls)
     sum_band:loo :      2.47s CPU      3.06s WALL (      21 calls)
                                        3.06s GPU  (      21 calls)
     sum_band:buf :      0.00s CPU      0.00s WALL (      21 calls)
                                        0.00s GPU  (      21 calls)
     sum_band:ini :      0.06s CPU      0.09s WALL (      21 calls)
                                        0.09s GPU  (      21 calls)
     sum_band:cal :      0.05s CPU      0.06s WALL (      21 calls)
                                        0.05s GPU  (      21 calls)
     sum_band:bec :      0.07s CPU      0.08s WALL (      21 calls)
                                        0.08s GPU  (      21 calls)
     addusdens    :      0.18s CPU      0.17s WALL (      21 calls)
                                        0.15s GPU  (      21 calls)
     addusd:skk   :      0.07s CPU      0.09s WALL (      42 calls)
                                        0.04s GPU  (      42 calls)

     Called by *egterg:
     rdiaghg      :      1.18s CPU      1.79s WALL (      78 calls)
                                        1.78s GPU  (      78 calls)
     regterg:over :      0.13s CPU      0.14s WALL (      57 calls)
     regterg:upda :      0.05s CPU      0.06s WALL (      57 calls)
     regterg:last :      0.06s CPU      0.07s WALL (      49 calls)
     h_psi        :      5.36s CPU      6.50s WALL (      79 calls)
                                        6.48s GPU  (      79 calls)
     s_psi        :      0.10s CPU      0.16s WALL (      79 calls)
                                        0.15s GPU  (      79 calls)
     g_psi        :      0.00s CPU      0.02s WALL (      57 calls)
                                        0.00s GPU  (      57 calls)

     Called by h_psi:
     h_psi:calbec :      0.15s CPU      0.16s WALL (      79 calls)
                                        0.15s GPU  (      79 calls)
     vloc_psi     :      4.96s CPU      6.06s WALL (      79 calls)
                                        6.04s GPU  (      79 calls)
     add_vuspsi   :      0.07s CPU      0.13s WALL (      79 calls)
                                        0.13s GPU  (      79 calls)

     General routines
     calbec       :      0.20s CPU      0.22s WALL (     104 calls)
     fft          :      6.20s CPU      3.00s WALL (     249 calls)
                                        0.56s GPU  (      26 calls)
     ffts         :      0.53s CPU      0.23s WALL (      43 calls)
     fftw         :      6.58s CPU      8.57s WALL (    2728 calls)
                                        7.72s GPU  (    2728 calls)
     interpolate  :      0.87s CPU      0.41s WALL (      22 calls)
 
     Parallel routines

     PAW routines
     PAW_pot      :      5.61s CPU      2.22s WALL (      22 calls)
 
     PWSCF        :     37.46s CPU     28.71s WALL

 
   This run was terminated on:   0:37:24  30Sep2021            

=------------------------------------------------------------------------------=
   JOB DONE.
=------------------------------------------------------------------------------=
