
     Program PWSCF v.6.8 starts on 30Sep2021 at  0:41:48 

     This program is part of the open-source Quantum ESPRESSO suite
     for quantum simulation of materials; please cite
         "P. Giannozzi et al., J. Phys.:Condens. Matter 21 395502 (2009);
         "P. Giannozzi et al., J. Phys.:Condens. Matter 29 465901 (2017);
         "P. Giannozzi et al., J. Chem. Phys. 152 154105 (2020);
          URL http://www.quantum-espresso.org", 
     in publications or presentations arising from this work. More details at
     http://www.quantum-espresso.org/quote

     Parallel version (MPI & OpenMP), running on      32 processor cores
     Number of MPI processes:                 8
     Threads/MPI process:                     4

     MPI processes distributed on     1 nodes
     R & G space division:  proc/nbgrp/npool/nimage =       8
     284004 MiB available memory on the printing compute node when the environment starts
 
     Reading input from 008.in

     Current dimensions of program PWSCF are:
     Max number of different atomic species (ntypx) = 10
     Max number of k-points (npk) =  40000
     Max angular momentum in pseudopotentials (lmaxx) =  4
     file O.pbe-n-kjpaw_psl.0.1.UPF: wavefunction(s)  2P renormalized

     gamma-point specific algorithms are used

     Subspace diagonalization in iterative solution of the eigenvalue problem:
     a serial algorithm will be used

 
     Parallelization info
     --------------------
     sticks:   dense  smooth     PW     G-vecs:    dense   smooth      PW
     Min        5495    2747    685               866627   306444   38359
     Max        5498    2750    688               866634   306450   38368
     Sum       43981   21985   5497              6933065  2451559  306907
 
     Using Slab Decomposition
 


     bravais-lattice index     =            1
     lattice parameter (alat)  =      33.9244  a.u.
     unit-cell volume          =   39042.2753 (a.u.)^3
     number of atoms/cell      =          228
     number of atomic types    =            2
     number of electrons       =       608.00
     number of Kohn-Sham states=          304
     kinetic-energy cutoff     =      60.0000  Ry
     charge density cutoff     =     480.0000  Ry
     scf convergence threshold =      1.0E-10
     mixing beta               =       0.7000
     number of iterations used =            8  plain     mixing
     Exchange-correlation= SLA  PW   PBX  PBC
                           (   1   4   3   4   0   0   0)

     GPU acceleration is ACTIVE.


     GPU used by master process:

        Device Number: 0
        Device name: Tesla V100-SXM2-16GB
        Compute capability : 70
        Ratio of single to double precision performance  : 2
        Memory Clock Rate (KHz): 877000
        Memory Bus Width (bits): 4096
        Peak Memory Bandwidth (GB/s): 898.05

     celldm(1)=  33.924363  celldm(2)=   0.000000  celldm(3)=   0.000000
     celldm(4)=   0.000000  celldm(5)=   0.000000  celldm(6)=   0.000000

     crystal axes: (cart. coord. in units of alat)
               a(1) = (   1.000000   0.000000   0.000000 )  
               a(2) = (   0.000000   1.000000   0.000000 )  
               a(3) = (   0.000000   0.000000   1.000000 )  

     reciprocal axes: (cart. coord. in units 2 pi/alat)
               b(1) = (  1.000000  0.000000  0.000000 )  
               b(2) = (  0.000000  1.000000  0.000000 )  
               b(3) = (  0.000000  0.000000  1.000000 )  


     PseudoPot. # 1 for H  read from file:
     ./H.pbe-rrkjus_psl.1.0.0.UPF
     MD5 check sum: f52b6d4d1c606e5624b1dc7b2218f220
     Pseudo is Ultrasoft, Zval =  1.0
     Generated using "atomic" code by A. Dal Corso  v.5.1
     Using radial grid of  929 points,  2 beta functions with: 
                l(1) =   0
                l(2) =   0
     Q(r) pseudized with 0 coefficients 


     PseudoPot. # 2 for O  read from file:
     ./O.pbe-n-kjpaw_psl.0.1.UPF
     MD5 check sum: 0234752ac141de4415c5fc33072bef88
     Pseudo is Projector augmented-wave + core cor, Zval =  6.0
     Generated using "atomic" code by A. Dal Corso  v.5.0.99 svn rev. 10869
     Shape of augmentation charge: BESSEL
     Using radial grid of 1095 points,  4 beta functions with: 
                l(1) =   0
                l(2) =   0
                l(3) =   1
                l(4) =   1
     Q(r) pseudized with 0 coefficients 


     atomic species   valence    mass     pseudopotential
        H              1.00     1.00000     H ( 1.00)
        O              6.00    16.00000     O ( 1.00)

     No symmetry found


                                    s                        frac. trans.

      isym =  1     identity                                     

 cryst.   s( 1) = (     1          0          0      )
                  (     0          1          0      )
                  (     0          0          1      )

 cart.    s( 1) = (  1.0000000  0.0000000  0.0000000 )
                  (  0.0000000  1.0000000  0.0000000 )
                  (  0.0000000  0.0000000  1.0000000 )


     point group C_1 (1)    
     there are  1 classes
     the character table:

       E    
A      1.00

     the symmetry operations in each class and the name of the first element:

     E        1
          identity                                               

   Cartesian axes

     site n.     atom                  positions (alat units)
         1           O   tau(   1) = (  -0.2013436   0.3069207   0.2097939  )
         2           H   tau(   2) = (  -0.1738648   0.2623574   0.2288447  )
         3           H   tau(   3) = (  -0.1903197   0.3137723   0.1556495  )
         4           O   tau(   4) = (   0.0689494   0.1962923   0.3103398  )
         5           H   tau(   5) = (   0.1057141   0.2154545   0.3474944  )
         6           H   tau(   6) = (   0.0956317   0.1669920   0.2712355  )
         7           O   tau(   7) = (  -0.3814572   0.0804278   0.1704668  )
         8           H   tau(   8) = (  -0.3759314   0.1289461   0.1973162  )
         9           H   tau(   9) = (  -0.3687678   0.0874465   0.1166566  )
        10           O   tau(  10) = (   0.2094352   0.1811965  -0.2485116  )
        11           H   tau(  11) = (   0.2599588   0.1822549  -0.2249877  )
        12           H   tau(  12) = (   0.1791321   0.1404211  -0.2256228  )
        13           O   tau(  13) = (   0.0887244  -0.1510673  -0.3942112  )
        14           H   tau(  14) = (   0.0397605  -0.1392747  -0.3703754  )
        15           H   tau(  15) = (   0.0908411  -0.2053788  -0.4063993  )
        16           O   tau(  16) = (  -0.1129857   0.1842602   0.0383924  )
        17           H   tau(  17) = (  -0.0987979   0.1854300  -0.0154846  )
        18           H   tau(  18) = (  -0.1519842   0.1452674   0.0464138  )
        19           O   tau(  19) = (   0.1901615   0.0255593   0.3698318  )
        20           H   tau(  20) = (   0.1987957   0.0031829   0.3195867  )
        21           H   tau(  21) = (   0.1882676   0.0810406   0.3654311  )
        22           O   tau(  22) = (   0.0666656   0.2863659  -0.0610561  )
        23           H   tau(  23) = (   0.0880559   0.2535004  -0.0215174  )
        24           H   tau(  24) = (   0.1073295   0.3167803  -0.0839505  )
        25           O   tau(  25) = (   0.0413759   0.0256150  -0.2359225  )
        26           H   tau(  26) = (   0.0885016   0.0331907  -0.2072516  )
        27           H   tau(  27) = (  -0.0007531   0.0506261  -0.2093906  )
        28           O   tau(  28) = (  -0.0049142   0.0627139   0.0615653  )
        29           H   tau(  29) = (  -0.0319196   0.0149086   0.0521513  )
        30           H   tau(  30) = (  -0.0418126   0.1031551   0.0717034  )
        31           O   tau(  31) = (  -0.0611754  -0.0666756  -0.1319452  )
        32           H   tau(  32) = (  -0.0066912  -0.0591722  -0.1231105  )
        33           H   tau(  33) = (  -0.0824655  -0.0213157  -0.1562767  )
        34           O   tau(  34) = (   0.0470577   0.0253365   0.2010484  )
        35           H   tau(  35) = (   0.0421000   0.0511832   0.1519730  )
        36           H   tau(  36) = (   0.0112957  -0.0172995   0.2032765  )
        37           O   tau(  37) = (  -0.1020455  -0.0664138   0.0173362  )
        38           H   tau(  38) = (  -0.1520399  -0.0462656   0.0313737  )
        39           H   tau(  39) = (  -0.0951549  -0.0622193  -0.0378053  )
        40           O   tau(  40) = (  -0.0368048   0.4114773   0.1544240  )
        41           H   tau(  41) = (  -0.0205448   0.3955459   0.2052819  )
        42           H   tau(  42) = (  -0.0057888   0.4546480   0.1377128  )
        43           O   tau(  43) = (  -0.1965642  -0.0301393   0.1969820  )
        44           H   tau(  44) = (  -0.2155537  -0.0180459   0.2479512  )
        45           H   tau(  45) = (  -0.1428431  -0.0445276   0.2001571  )
        46           O   tau(  46) = (  -0.4270065  -0.0411965  -0.0165207  )
        47           H   tau(  47) = (  -0.4258590  -0.0677841   0.0324320  )
        48           H   tau(  48) = (  -0.4332008  -0.0782565  -0.0576471  )
        49           O   tau(  49) = (  -0.1761096   0.1076114  -0.2718460  )
        50           H   tau(  50) = (  -0.2304490   0.1067201  -0.2840452  )
        51           H   tau(  51) = (  -0.1473997   0.1252139  -0.3162032  )
        52           O   tau(  52) = (  -0.1697037  -0.2267190   0.1466254  )
        53           H   tau(  53) = (  -0.2086074  -0.1926783   0.1258478  )
        54           H   tau(  54) = (  -0.1203498  -0.2145978   0.1237868  )
        55           O   tau(  55) = (  -0.1500234  -0.2118070  -0.3257509  )
        56           H   tau(  56) = (  -0.1567970  -0.2170265  -0.3807921  )
        57           H   tau(  57) = (  -0.1051092  -0.1805013  -0.3154568  )
        58           O   tau(  58) = (   0.2265363  -0.2172048   0.0269730  )
        59           H   tau(  59) = (   0.2648050  -0.2193438   0.0673585  )
        60           H   tau(  60) = (   0.1810261  -0.1912244   0.0458567  )
        61           O   tau(  61) = (   0.3723697   0.0180949   0.2074543  )
        62           H   tau(  62) = (   0.3301459   0.0219942   0.1713581  )
        63           H   tau(  63) = (   0.4173229   0.0433289   0.1862311  )
        64           O   tau(  64) = (  -0.0801593   0.2191867   0.2633812  )
        65           H   tau(  65) = (  -0.0252518   0.2228632   0.2719597  )
        66           H   tau(  66) = (  -0.1046803   0.1980749   0.3087244  )
        67           O   tau(  67) = (   0.1164650   0.2397972  -0.3413703  )
        68           H   tau(  68) = (   0.1491633   0.2321658  -0.2969017  )
        69           H   tau(  69) = (   0.1205314   0.1956796  -0.3751716  )
        70           O   tau(  70) = (  -0.0754356   0.0866667  -0.1603264  )
        71           H   tau(  71) = (  -0.0675869   0.1354078  -0.1345689  )
        72           H   tau(  72) = (  -0.1104234   0.0936854  -0.2030960  )
        73           O   tau(  73) = (  -0.0109247  -0.3019864   0.3012043  )
        74           H   tau(  74) = (  -0.0664617  -0.3060807   0.2999231  )
        75           H   tau(  75) = (   0.0077863  -0.3186809   0.3509481  )
        76           O   tau(  76) = (   0.2708211   0.1781328   0.1003910  )
        77           H   tau(  77) = (   0.2370087   0.2195209   0.0847382  )
        78           H   tau(  78) = (   0.3172226   0.1994118   0.1226170  )
        79           O   tau(  79) = (   0.2687600  -0.2380492  -0.1163146  )
        80           H   tau(  80) = (   0.2253108  -0.2586542  -0.1443672  )
        81           H   tau(  81) = (   0.2558924  -0.2342001  -0.0622649  )
        82           O   tau(  82) = (   0.2225813  -0.0713714  -0.0079256  )
        83           H   tau(  83) = (   0.1733946  -0.0587266  -0.0308088  )
        84           H   tau(  84) = (   0.2353933  -0.1243238  -0.0195343  )
        85           O   tau(  85) = (  -0.0409770  -0.1819886   0.0889160  )
        86           H   tau(  86) = (  -0.0589918  -0.1394029   0.0578888  )
        87           H   tau(  87) = (  -0.0143895  -0.2186642   0.0564962  )
        88           O   tau(  88) = (  -0.3136096   0.2869786  -0.1169552  )
        89           H   tau(  89) = (  -0.3691967   0.2839149  -0.1188770  )
        90           H   tau(  90) = (  -0.2924421   0.2712701  -0.1660361  )
        91           O   tau(  91) = (  -0.3060339   0.3122126   0.0319864  )
        92           H   tau(  92) = (  -0.3066745   0.2958913  -0.0212890  )
        93           H   tau(  93) = (  -0.2533824   0.3201225   0.0483634  )
        94           O   tau(  94) = (   0.3418995  -0.2292480   0.1309726  )
        95           H   tau(  95) = (   0.3264138  -0.1964661   0.1732520  )
        96           H   tau(  96) = (   0.3879668  -0.2572393   0.1451214  )
        97           O   tau(  97) = (   0.1664873   0.0631038  -0.1475702  )
        98           H   tau(  98) = (   0.2191834   0.0530771  -0.1624933  )
        99           H   tau(  99) = (   0.1652061   0.0811520  -0.0948852  )
       100           O   tau( 100) = (  -0.2047137   0.0713480   0.0875234  )
       101           H   tau( 101) = (  -0.2090809   0.0397081   0.1331451  )
       102           H   tau( 102) = (  -0.2556049   0.0851070   0.0695310  )
       103           O   tau( 103) = (  -0.2575824  -0.1414973  -0.0646713  )
       104           H   tau( 104) = (  -0.2650078  -0.1299109  -0.0106941  )
       105           H   tau( 105) = (  -0.2403253  -0.0957030  -0.0912812  )
       106           O   tau( 106) = (  -0.0577885  -0.0828131   0.2111308  )
       107           H   tau( 107) = (  -0.0530537  -0.1251203   0.1752016  )
       108           H   tau( 108) = (  -0.0472048  -0.1009782   0.2627128  )
       109           O   tau( 109) = (   0.2604601   0.0181506   0.1016722  )
       110           H   tau( 110) = (   0.2516032   0.0725178   0.0933166  )
       111           H   tau( 111) = (   0.2397382  -0.0108211   0.0588915  )
       112           O   tau( 112) = (   0.1183590   0.3992224   0.0563291  )
       113           H   tau( 113) = (   0.1279958   0.3891399   0.0024075  )
       114           H   tau( 114) = (   0.0898385   0.4467380   0.0615653  )
       115           O   tau( 115) = (   0.1407520   0.2423596   0.0680270  )
       116           H   tau( 116) = (   0.1033189   0.2203565   0.1028977  )
       117           H   tau( 117) = (   0.1284971   0.2958913   0.0589472  )
       118           O   tau( 118) = (  -0.1729178  -0.3211319   0.0245778  )
       119           H   tau( 119) = (  -0.1333567  -0.2909124  -0.0004334  )
       120           H   tau( 120) = (  -0.1626459  -0.3235717   0.0792792  )
       121           O   tau( 121) = (  -0.2664617  -0.1118850   0.0930381  )
       122           H   tau( 122) = (  -0.3192357  -0.1273151   0.1019508  )
       123           H   tau( 123) = (  -0.2520566  -0.0727473   0.1299699  )
       124           O   tau( 124) = (  -0.0373841  -0.3651381   0.1500791  )
       125           H   tau( 125) = (  -0.0318026  -0.3282175   0.1914115  )
       126           H   tau( 126) = (   0.0112400  -0.3707531   0.1235082  )
       127           O   tau( 127) = (   0.2208545  -0.0824621  -0.3695733  )
       128           H   tau( 128) = (   0.1729490  -0.1100969  -0.3762857  )
       129           H   tau( 129) = (   0.2266477  -0.0451515  -0.4105270  )
       130           O   tau( 130) = (   0.3203977   0.0499577  -0.1713391  )
       131           H   tau( 131) = (   0.3294775   0.0115831  -0.2106829  )
       132           H   tau( 132) = (   0.3173340   0.0251136  -0.1215619  )
       133           O   tau( 133) = (  -0.0665118   0.2252028  -0.1048619  )
       134           H   tau( 134) = (  -0.0838414   0.2520521  -0.1504779  )
       135           H   tau( 135) = (  -0.0169184   0.2452005  -0.0892591  )
       136           O   tau( 136) = (  -0.2210851   0.0200446   0.3542346  )
       137           H   tau( 137) = (  -0.2231183   0.0005871   0.4063737  )
       138           H   tau( 138) = (  -0.1679378   0.0268962   0.3390274  )
       139           O   tau( 139) = (  -0.1524911  -0.2665363   0.2946312  )
       140           H   tau( 140) = (  -0.1639717  -0.2538414   0.2416009  )
       141           H   tau( 141) = (  -0.1999621  -0.2702016   0.3235417  )
       142           O   tau( 142) = (  -0.1081729   0.0016288  -0.4346914  )
       143           H   tau( 143) = (  -0.1045633  -0.0281896  -0.4816054  )
       144           H   tau( 144) = (  -0.1375958   0.0479523  -0.4443449  )
       145           O   tau( 145) = (   0.3425680  -0.0587879  -0.2724365  )
       146           H   tau( 146) = (   0.3690831  -0.1075290  -0.2773162  )
       147           H   tau( 147) = (   0.3255782  -0.0417926  -0.3226872  )
       148           O   tau( 148) = (  -0.0241878   0.3104857  -0.2471190  )
       149           H   tau( 149) = (   0.0274499   0.2897638  -0.2492859  )
       150           H   tau( 150) = (  -0.0217424   0.3659670  -0.2425624  )
       151           O   tau( 151) = (   0.1761798   0.3737099  -0.0959603  )
       152           H   tau( 152) = (   0.1694953   0.4109759  -0.1368360  )
       153           H   tau( 153) = (   0.2237511   0.3841266  -0.0689550  )
       154           O   tau( 154) = (   0.0124098   0.1203676  -0.4028788  )
       155           H   tau( 155) = (  -0.0263826   0.0885049  -0.4270878  )
       156           H   tau( 156) = (  -0.0003131   0.1273864  -0.3491020  )
       157           O   tau( 157) = (   0.1257676  -0.2985550  -0.0768483  )
       158           H   tau( 158) = (   0.1462110  -0.3439650  -0.1017981  )
       159           H   tau( 159) = (   0.1411419  -0.2982709  -0.0233111  )
       160           O   tau( 160) = (   0.1117859  -0.3894920   0.0854623  )
       161           H   tau( 161) = (   0.1523942  -0.3638291   0.1137043  )
       162           H   tau( 162) = (   0.1326749  -0.4339661   0.0592257  )
       163           O   tau( 163) = (  -0.1118494  -0.3382721  -0.1349254  )
       164           H   tau( 164) = (  -0.1660216  -0.3479757  -0.1435651  )
       165           H   tau( 165) = (  -0.0930604  -0.3024822  -0.1732498  )
       166           O   tau( 166) = (  -0.0629802   0.0573663   0.3381361  )
       167           H   tau( 167) = (  -0.0280816   0.0818204   0.3739539  )
       168           H   tau( 168) = (  -0.0337021   0.0290686   0.3000902  )
       169           O   tau( 169) = (  -0.3040564  -0.2817602  -0.0419608  )
       170           H   tau( 170) = (  -0.2567023  -0.3012066  -0.0200022  )
       171           H   tau( 171) = (  -0.3029534  -0.2260673  -0.0421223  )
       172           O   tau( 172) = (   0.1978487  -0.1180515  -0.2063826  )
       173           H   tau( 173) = (   0.2218572  -0.0876816  -0.2464505  )
       174           H   tau( 174) = (   0.2361731  -0.1503654  -0.1821123  )
       175           O   tau( 175) = (  -0.1247337   0.2253699  -0.3570733  )
       176           H   tau( 176) = (  -0.1127462   0.2767848  -0.3392870  )
       177           H   tau( 177) = (  -0.0990541   0.2160116  -0.4056139  )
       178           O   tau( 178) = (  -0.2379635   0.0160116  -0.1048006  )
       179           H   tau( 179) = (  -0.1872672   0.0390397  -0.1034915  )
       180           H   tau( 180) = (  -0.2740263   0.0517402  -0.1276894  )
       181           O   tau( 181) = (  -0.0220878  -0.2846012  -0.0203197  )
       182           H   tau( 182) = (  -0.0549922  -0.3051894  -0.0602707  )
       183           H   tau( 183) = (   0.0307921  -0.2847850  -0.0378832  )
       184           O   tau( 184) = (  -0.3441578   0.0987545   0.0259147  )
       185           H   tau( 185) = (  -0.3685896   0.1373017  -0.0060038  )
       186           H   tau( 186) = (  -0.3636096   0.0483422   0.0122672  )
       187           O   tau( 187) = (   0.1369084   0.1025980  -0.0090397  )
       188           H   tau( 188) = (   0.1544552   0.1482197   0.0176705  )
       189           H   tau( 189) = (   0.0921223   0.0819318   0.0168906  )
       190           O   tau( 190) = (  -0.0430827  -0.2077239  -0.1963391  )
       191           H   tau( 191) = (  -0.0481796  -0.1541644  -0.1819062  )
       192           H   tau( 192) = (   0.0108500  -0.2217001  -0.1971190  )
       193           O   tau( 193) = (   0.2028621  -0.0373585   0.2387043  )
       194           H   tau( 194) = (   0.2384013  -0.0292424   0.1965363  )
       195           H   tau( 195) = (   0.1505559  -0.0337934   0.2198206  )
       196           O   tau( 196) = (  -0.0233746  -0.0819998  -0.3269931  )
       197           H   tau( 197) = (  -0.0520232  -0.0526214  -0.3646602  )
       198           H   tau( 198) = (   0.0064494  -0.0473407  -0.2952028  )
       199           O   tau( 199) = (  -0.1554434   0.3442424   0.0644619  )
       200           H   tau( 200) = (  -0.1169630   0.3728743   0.0927596  )
       201           H   tau( 201) = (  -0.1345042   0.2948329   0.0494218  )
       202           O   tau( 202) = (   0.1799677   0.1265508   0.2455559  )
       203           H   tau( 203) = (   0.2049231   0.1396413   0.1975390  )
       204           H   tau( 204) = (   0.1546223   0.0771970   0.2404869  )
       205           O   tau( 205) = (   0.1089450  -0.2088547   0.2472270  )
       206           H   tau( 206) = (   0.1439828  -0.2518917   0.2423808  )
       207           H   tau( 207) = (   0.0584213  -0.2275490   0.2613202  )
       208           O   tau( 208) = (   0.3586664  -0.0204579  -0.0407353  )
       209           H   tau( 209) = (   0.3102039  -0.0433746  -0.0256451  )
       210           H   tau( 210) = (   0.3976036  -0.0328186  -0.0028844  )
       211           O   tau( 211) = (   0.1025947  -0.1104701   0.3765163  )
       212           H   tau( 212) = (   0.1211442  -0.1416533   0.3342926  )
       213           H   tau( 213) = (   0.1246535  -0.0594452   0.3730626  )
       214           O   tau( 214) = (  -0.2644842  -0.2155281  -0.2203142  )
       215           H   tau( 215) = (  -0.2188291  -0.2165865  -0.2522103  )
       216           H   tau( 216) = (  -0.2500234  -0.2051281  -0.1675345  )
       217           O   tau( 217) = (   0.1077195  -0.1260283   0.1104735  )
       218           H   tau( 218) = (   0.0533523  -0.1287745   0.0986642  )
       219           H   tau( 219) = (   0.1163536  -0.1434804   0.1626682  )
       220           O   tau( 220) = (   0.0981941  -0.0775992  -0.1006785  )
       221           H   tau( 221) = (   0.1115074  -0.0264795  -0.1183590  )
       222           H   tau( 222) = (   0.1293327  -0.1152106  -0.1275111  )
       223           O   tau( 223) = (   0.0045945   0.1984648   0.1214472  )
       224           H   tau( 224) = (  -0.0145677   0.1891065   0.1729178  )
       225           H   tau( 225) = (  -0.0381974   0.2085472   0.0872449  )
       226           O   tau( 226) = (  -0.0663837  -0.1361330   0.3574655  )
       227           H   tau( 227) = (  -0.0329779  -0.1273429   0.4011932  )
       228           H   tau( 228) = (  -0.0970544  -0.1817658   0.3664338  )

   Crystallographic axes

     site n.     atom                  positions (cryst. coord.)
         1           O   tau(   1) = ( -0.2013436  0.3069207  0.2097939  )
         2           H   tau(   2) = ( -0.1738648  0.2623574  0.2288447  )
         3           H   tau(   3) = ( -0.1903197  0.3137723  0.1556495  )
         4           O   tau(   4) = (  0.0689494  0.1962923  0.3103398  )
         5           H   tau(   5) = (  0.1057141  0.2154545  0.3474944  )
         6           H   tau(   6) = (  0.0956317  0.1669920  0.2712355  )
         7           O   tau(   7) = ( -0.3814572  0.0804278  0.1704668  )
         8           H   tau(   8) = ( -0.3759314  0.1289461  0.1973162  )
         9           H   tau(   9) = ( -0.3687678  0.0874465  0.1166566  )
        10           O   tau(  10) = (  0.2094352  0.1811965 -0.2485116  )
        11           H   tau(  11) = (  0.2599588  0.1822549 -0.2249877  )
        12           H   tau(  12) = (  0.1791321  0.1404211 -0.2256228  )
        13           O   tau(  13) = (  0.0887244 -0.1510673 -0.3942112  )
        14           H   tau(  14) = (  0.0397605 -0.1392747 -0.3703754  )
        15           H   tau(  15) = (  0.0908411 -0.2053788 -0.4063993  )
        16           O   tau(  16) = ( -0.1129857  0.1842602  0.0383924  )
        17           H   tau(  17) = ( -0.0987979  0.1854300 -0.0154846  )
        18           H   tau(  18) = ( -0.1519842  0.1452674  0.0464138  )
        19           O   tau(  19) = (  0.1901615  0.0255593  0.3698318  )
        20           H   tau(  20) = (  0.1987957  0.0031829  0.3195867  )
        21           H   tau(  21) = (  0.1882676  0.0810406  0.3654311  )
        22           O   tau(  22) = (  0.0666656  0.2863659 -0.0610561  )
        23           H   tau(  23) = (  0.0880559  0.2535004 -0.0215174  )
        24           H   tau(  24) = (  0.1073295  0.3167803 -0.0839505  )
        25           O   tau(  25) = (  0.0413759  0.0256150 -0.2359225  )
        26           H   tau(  26) = (  0.0885016  0.0331907 -0.2072516  )
        27           H   tau(  27) = ( -0.0007531  0.0506261 -0.2093906  )
        28           O   tau(  28) = ( -0.0049142  0.0627139  0.0615653  )
        29           H   tau(  29) = ( -0.0319196  0.0149086  0.0521513  )
        30           H   tau(  30) = ( -0.0418126  0.1031551  0.0717034  )
        31           O   tau(  31) = ( -0.0611754 -0.0666756 -0.1319452  )
        32           H   tau(  32) = ( -0.0066912 -0.0591722 -0.1231105  )
        33           H   tau(  33) = ( -0.0824655 -0.0213157 -0.1562767  )
        34           O   tau(  34) = (  0.0470577  0.0253365  0.2010484  )
        35           H   tau(  35) = (  0.0421000  0.0511832  0.1519730  )
        36           H   tau(  36) = (  0.0112957 -0.0172995  0.2032765  )
        37           O   tau(  37) = ( -0.1020455 -0.0664138  0.0173362  )
        38           H   tau(  38) = ( -0.1520399 -0.0462656  0.0313737  )
        39           H   tau(  39) = ( -0.0951549 -0.0622193 -0.0378053  )
        40           O   tau(  40) = ( -0.0368048  0.4114773  0.1544240  )
        41           H   tau(  41) = ( -0.0205448  0.3955459  0.2052819  )
        42           H   tau(  42) = ( -0.0057888  0.4546480  0.1377128  )
        43           O   tau(  43) = ( -0.1965642 -0.0301393  0.1969820  )
        44           H   tau(  44) = ( -0.2155537 -0.0180459  0.2479512  )
        45           H   tau(  45) = ( -0.1428431 -0.0445276  0.2001571  )
        46           O   tau(  46) = ( -0.4270065 -0.0411965 -0.0165207  )
        47           H   tau(  47) = ( -0.4258590 -0.0677841  0.0324320  )
        48           H   tau(  48) = ( -0.4332008 -0.0782565 -0.0576471  )
        49           O   tau(  49) = ( -0.1761096  0.1076114 -0.2718460  )
        50           H   tau(  50) = ( -0.2304490  0.1067201 -0.2840452  )
        51           H   tau(  51) = ( -0.1473997  0.1252139 -0.3162032  )
        52           O   tau(  52) = ( -0.1697037 -0.2267190  0.1466254  )
        53           H   tau(  53) = ( -0.2086074 -0.1926783  0.1258478  )
        54           H   tau(  54) = ( -0.1203498 -0.2145978  0.1237868  )
        55           O   tau(  55) = ( -0.1500234 -0.2118070 -0.3257509  )
        56           H   tau(  56) = ( -0.1567970 -0.2170265 -0.3807921  )
        57           H   tau(  57) = ( -0.1051092 -0.1805013 -0.3154568  )
        58           O   tau(  58) = (  0.2265363 -0.2172048  0.0269730  )
        59           H   tau(  59) = (  0.2648050 -0.2193438  0.0673585  )
        60           H   tau(  60) = (  0.1810261 -0.1912244  0.0458567  )
        61           O   tau(  61) = (  0.3723697  0.0180949  0.2074543  )
        62           H   tau(  62) = (  0.3301459  0.0219942  0.1713581  )
        63           H   tau(  63) = (  0.4173229  0.0433289  0.1862311  )
        64           O   tau(  64) = ( -0.0801593  0.2191867  0.2633812  )
        65           H   tau(  65) = ( -0.0252518  0.2228632  0.2719597  )
        66           H   tau(  66) = ( -0.1046803  0.1980749  0.3087244  )
        67           O   tau(  67) = (  0.1164650  0.2397972 -0.3413703  )
        68           H   tau(  68) = (  0.1491633  0.2321658 -0.2969017  )
        69           H   tau(  69) = (  0.1205314  0.1956796 -0.3751716  )
        70           O   tau(  70) = ( -0.0754356  0.0866667 -0.1603264  )
        71           H   tau(  71) = ( -0.0675869  0.1354078 -0.1345689  )
        72           H   tau(  72) = ( -0.1104234  0.0936854 -0.2030960  )
        73           O   tau(  73) = ( -0.0109247 -0.3019864  0.3012043  )
        74           H   tau(  74) = ( -0.0664617 -0.3060807  0.2999231  )
        75           H   tau(  75) = (  0.0077863 -0.3186809  0.3509481  )
        76           O   tau(  76) = (  0.2708211  0.1781328  0.1003910  )
        77           H   tau(  77) = (  0.2370087  0.2195209  0.0847382  )
        78           H   tau(  78) = (  0.3172226  0.1994118  0.1226170  )
        79           O   tau(  79) = (  0.2687600 -0.2380492 -0.1163146  )
        80           H   tau(  80) = (  0.2253108 -0.2586542 -0.1443672  )
        81           H   tau(  81) = (  0.2558924 -0.2342001 -0.0622649  )
        82           O   tau(  82) = (  0.2225813 -0.0713714 -0.0079256  )
        83           H   tau(  83) = (  0.1733946 -0.0587266 -0.0308088  )
        84           H   tau(  84) = (  0.2353933 -0.1243238 -0.0195343  )
        85           O   tau(  85) = ( -0.0409770 -0.1819886  0.0889160  )
        86           H   tau(  86) = ( -0.0589918 -0.1394029  0.0578888  )
        87           H   tau(  87) = ( -0.0143895 -0.2186642  0.0564962  )
        88           O   tau(  88) = ( -0.3136096  0.2869786 -0.1169552  )
        89           H   tau(  89) = ( -0.3691967  0.2839149 -0.1188770  )
        90           H   tau(  90) = ( -0.2924421  0.2712701 -0.1660361  )
        91           O   tau(  91) = ( -0.3060339  0.3122126  0.0319864  )
        92           H   tau(  92) = ( -0.3066745  0.2958913 -0.0212890  )
        93           H   tau(  93) = ( -0.2533824  0.3201225  0.0483634  )
        94           O   tau(  94) = (  0.3418995 -0.2292480  0.1309726  )
        95           H   tau(  95) = (  0.3264138 -0.1964661  0.1732520  )
        96           H   tau(  96) = (  0.3879668 -0.2572393  0.1451214  )
        97           O   tau(  97) = (  0.1664873  0.0631038 -0.1475702  )
        98           H   tau(  98) = (  0.2191834  0.0530771 -0.1624933  )
        99           H   tau(  99) = (  0.1652061  0.0811520 -0.0948852  )
       100           O   tau( 100) = ( -0.2047137  0.0713480  0.0875234  )
       101           H   tau( 101) = ( -0.2090809  0.0397081  0.1331451  )
       102           H   tau( 102) = ( -0.2556049  0.0851070  0.0695310  )
       103           O   tau( 103) = ( -0.2575824 -0.1414973 -0.0646713  )
       104           H   tau( 104) = ( -0.2650078 -0.1299109 -0.0106941  )
       105           H   tau( 105) = ( -0.2403253 -0.0957030 -0.0912812  )
       106           O   tau( 106) = ( -0.0577885 -0.0828131  0.2111308  )
       107           H   tau( 107) = ( -0.0530537 -0.1251203  0.1752016  )
       108           H   tau( 108) = ( -0.0472048 -0.1009782  0.2627128  )
       109           O   tau( 109) = (  0.2604601  0.0181506  0.1016722  )
       110           H   tau( 110) = (  0.2516032  0.0725178  0.0933166  )
       111           H   tau( 111) = (  0.2397382 -0.0108211  0.0588915  )
       112           O   tau( 112) = (  0.1183590  0.3992224  0.0563291  )
       113           H   tau( 113) = (  0.1279958  0.3891399  0.0024075  )
       114           H   tau( 114) = (  0.0898385  0.4467380  0.0615653  )
       115           O   tau( 115) = (  0.1407520  0.2423596  0.0680270  )
       116           H   tau( 116) = (  0.1033189  0.2203565  0.1028977  )
       117           H   tau( 117) = (  0.1284971  0.2958913  0.0589472  )
       118           O   tau( 118) = ( -0.1729178 -0.3211319  0.0245778  )
       119           H   tau( 119) = ( -0.1333567 -0.2909124 -0.0004334  )
       120           H   tau( 120) = ( -0.1626459 -0.3235717  0.0792792  )
       121           O   tau( 121) = ( -0.2664617 -0.1118850  0.0930381  )
       122           H   tau( 122) = ( -0.3192357 -0.1273151  0.1019508  )
       123           H   tau( 123) = ( -0.2520566 -0.0727473  0.1299699  )
       124           O   tau( 124) = ( -0.0373841 -0.3651381  0.1500791  )
       125           H   tau( 125) = ( -0.0318026 -0.3282175  0.1914115  )
       126           H   tau( 126) = (  0.0112400 -0.3707531  0.1235082  )
       127           O   tau( 127) = (  0.2208545 -0.0824621 -0.3695733  )
       128           H   tau( 128) = (  0.1729490 -0.1100969 -0.3762857  )
       129           H   tau( 129) = (  0.2266477 -0.0451515 -0.4105270  )
       130           O   tau( 130) = (  0.3203977  0.0499577 -0.1713391  )
       131           H   tau( 131) = (  0.3294775  0.0115831 -0.2106829  )
       132           H   tau( 132) = (  0.3173340  0.0251136 -0.1215619  )
       133           O   tau( 133) = ( -0.0665118  0.2252028 -0.1048619  )
       134           H   tau( 134) = ( -0.0838414  0.2520521 -0.1504779  )
       135           H   tau( 135) = ( -0.0169184  0.2452005 -0.0892591  )
       136           O   tau( 136) = ( -0.2210851  0.0200446  0.3542346  )
       137           H   tau( 137) = ( -0.2231183  0.0005871  0.4063737  )
       138           H   tau( 138) = ( -0.1679378  0.0268962  0.3390274  )
       139           O   tau( 139) = ( -0.1524911 -0.2665363  0.2946312  )
       140           H   tau( 140) = ( -0.1639717 -0.2538414  0.2416009  )
       141           H   tau( 141) = ( -0.1999621 -0.2702016  0.3235417  )
       142           O   tau( 142) = ( -0.1081729  0.0016288 -0.4346914  )
       143           H   tau( 143) = ( -0.1045633 -0.0281896 -0.4816054  )
       144           H   tau( 144) = ( -0.1375958  0.0479523 -0.4443449  )
       145           O   tau( 145) = (  0.3425680 -0.0587879 -0.2724365  )
       146           H   tau( 146) = (  0.3690831 -0.1075290 -0.2773162  )
       147           H   tau( 147) = (  0.3255782 -0.0417926 -0.3226872  )
       148           O   tau( 148) = ( -0.0241878  0.3104857 -0.2471190  )
       149           H   tau( 149) = (  0.0274499  0.2897638 -0.2492859  )
       150           H   tau( 150) = ( -0.0217424  0.3659670 -0.2425624  )
       151           O   tau( 151) = (  0.1761798  0.3737099 -0.0959603  )
       152           H   tau( 152) = (  0.1694953  0.4109759 -0.1368360  )
       153           H   tau( 153) = (  0.2237511  0.3841266 -0.0689550  )
       154           O   tau( 154) = (  0.0124098  0.1203676 -0.4028788  )
       155           H   tau( 155) = ( -0.0263826  0.0885049 -0.4270878  )
       156           H   tau( 156) = ( -0.0003131  0.1273864 -0.3491020  )
       157           O   tau( 157) = (  0.1257676 -0.2985550 -0.0768483  )
       158           H   tau( 158) = (  0.1462110 -0.3439650 -0.1017981  )
       159           H   tau( 159) = (  0.1411419 -0.2982709 -0.0233111  )
       160           O   tau( 160) = (  0.1117859 -0.3894920  0.0854623  )
       161           H   tau( 161) = (  0.1523942 -0.3638291  0.1137043  )
       162           H   tau( 162) = (  0.1326749 -0.4339661  0.0592257  )
       163           O   tau( 163) = ( -0.1118494 -0.3382721 -0.1349254  )
       164           H   tau( 164) = ( -0.1660216 -0.3479757 -0.1435651  )
       165           H   tau( 165) = ( -0.0930604 -0.3024822 -0.1732498  )
       166           O   tau( 166) = ( -0.0629802  0.0573663  0.3381361  )
       167           H   tau( 167) = ( -0.0280816  0.0818204  0.3739539  )
       168           H   tau( 168) = ( -0.0337021  0.0290686  0.3000902  )
       169           O   tau( 169) = ( -0.3040564 -0.2817602 -0.0419608  )
       170           H   tau( 170) = ( -0.2567023 -0.3012066 -0.0200022  )
       171           H   tau( 171) = ( -0.3029534 -0.2260673 -0.0421223  )
       172           O   tau( 172) = (  0.1978487 -0.1180515 -0.2063826  )
       173           H   tau( 173) = (  0.2218572 -0.0876816 -0.2464505  )
       174           H   tau( 174) = (  0.2361731 -0.1503654 -0.1821123  )
       175           O   tau( 175) = ( -0.1247337  0.2253699 -0.3570733  )
       176           H   tau( 176) = ( -0.1127462  0.2767848 -0.3392870  )
       177           H   tau( 177) = ( -0.0990541  0.2160116 -0.4056139  )
       178           O   tau( 178) = ( -0.2379635  0.0160116 -0.1048006  )
       179           H   tau( 179) = ( -0.1872672  0.0390397 -0.1034915  )
       180           H   tau( 180) = ( -0.2740263  0.0517402 -0.1276894  )
       181           O   tau( 181) = ( -0.0220878 -0.2846012 -0.0203197  )
       182           H   tau( 182) = ( -0.0549922 -0.3051894 -0.0602707  )
       183           H   tau( 183) = (  0.0307921 -0.2847850 -0.0378832  )
       184           O   tau( 184) = ( -0.3441578  0.0987545  0.0259147  )
       185           H   tau( 185) = ( -0.3685896  0.1373017 -0.0060038  )
       186           H   tau( 186) = ( -0.3636096  0.0483422  0.0122672  )
       187           O   tau( 187) = (  0.1369084  0.1025980 -0.0090397  )
       188           H   tau( 188) = (  0.1544552  0.1482197  0.0176705  )
       189           H   tau( 189) = (  0.0921223  0.0819318  0.0168906  )
       190           O   tau( 190) = ( -0.0430827 -0.2077239 -0.1963391  )
       191           H   tau( 191) = ( -0.0481796 -0.1541644 -0.1819062  )
       192           H   tau( 192) = (  0.0108500 -0.2217001 -0.1971190  )
       193           O   tau( 193) = (  0.2028621 -0.0373585  0.2387043  )
       194           H   tau( 194) = (  0.2384013 -0.0292424  0.1965363  )
       195           H   tau( 195) = (  0.1505559 -0.0337934  0.2198206  )
       196           O   tau( 196) = ( -0.0233746 -0.0819998 -0.3269931  )
       197           H   tau( 197) = ( -0.0520232 -0.0526214 -0.3646602  )
       198           H   tau( 198) = (  0.0064494 -0.0473407 -0.2952028  )
       199           O   tau( 199) = ( -0.1554434  0.3442424  0.0644619  )
       200           H   tau( 200) = ( -0.1169630  0.3728743  0.0927596  )
       201           H   tau( 201) = ( -0.1345042  0.2948329  0.0494218  )
       202           O   tau( 202) = (  0.1799677  0.1265508  0.2455559  )
       203           H   tau( 203) = (  0.2049231  0.1396413  0.1975390  )
       204           H   tau( 204) = (  0.1546223  0.0771970  0.2404869  )
       205           O   tau( 205) = (  0.1089450 -0.2088547  0.2472270  )
       206           H   tau( 206) = (  0.1439828 -0.2518917  0.2423808  )
       207           H   tau( 207) = (  0.0584213 -0.2275490  0.2613202  )
       208           O   tau( 208) = (  0.3586664 -0.0204579 -0.0407353  )
       209           H   tau( 209) = (  0.3102039 -0.0433746 -0.0256451  )
       210           H   tau( 210) = (  0.3976036 -0.0328186 -0.0028844  )
       211           O   tau( 211) = (  0.1025947 -0.1104701  0.3765163  )
       212           H   tau( 212) = (  0.1211442 -0.1416533  0.3342926  )
       213           H   tau( 213) = (  0.1246535 -0.0594452  0.3730626  )
       214           O   tau( 214) = ( -0.2644842 -0.2155281 -0.2203142  )
       215           H   tau( 215) = ( -0.2188291 -0.2165865 -0.2522103  )
       216           H   tau( 216) = ( -0.2500234 -0.2051281 -0.1675345  )
       217           O   tau( 217) = (  0.1077195 -0.1260283  0.1104735  )
       218           H   tau( 218) = (  0.0533523 -0.1287745  0.0986642  )
       219           H   tau( 219) = (  0.1163536 -0.1434804  0.1626682  )
       220           O   tau( 220) = (  0.0981941 -0.0775992 -0.1006785  )
       221           H   tau( 221) = (  0.1115074 -0.0264795 -0.1183590  )
       222           H   tau( 222) = (  0.1293327 -0.1152106 -0.1275111  )
       223           O   tau( 223) = (  0.0045945  0.1984648  0.1214472  )
       224           H   tau( 224) = ( -0.0145677  0.1891065  0.1729178  )
       225           H   tau( 225) = ( -0.0381974  0.2085472  0.0872449  )
       226           O   tau( 226) = ( -0.0663837 -0.1361330  0.3574655  )
       227           H   tau( 227) = ( -0.0329779 -0.1273429  0.4011932  )
       228           H   tau( 228) = ( -0.0970544 -0.1817658  0.3664338  )

     number of k points=     1
                       cart. coord. in units 2pi/alat
        k(    1) = (   0.0000000   0.0000000   0.0000000), wk =   2.0000000

                       cryst. coord.
        k(    1) = (   0.0000000   0.0000000   0.0000000), wk =   2.0000000

     Dense  grid:  3466533 G-vectors     FFT dimensions: ( 240, 240, 240)

     Smooth grid:  1225780 G-vectors     FFT dimensions: ( 180, 180, 180)

     Dynamical RAM for                 wfc:      88.84 MB

     Dynamical RAM for     wfc (w. buffer):      88.84 MB

     Dynamical RAM for           str. fact:      13.22 MB

     Dynamical RAM for           local pot:       0.00 MB

     Dynamical RAM for          nlocal pot:     266.51 MB

     Dynamical RAM for                qrad:       1.00 MB

     Dynamical RAM for          rho,v,vnew:      59.39 MB

     Dynamical RAM for               rhoin:      19.80 MB

     Dynamical RAM for            rho*nmix:     105.79 MB

     Dynamical RAM for           G-vectors:      25.96 MB

     Dynamical RAM for          h,s,v(r/c):       8.46 MB

     Dynamical RAM for          <psi|beta>:       2.12 MB

     Dynamical RAM for                 psi:     177.67 MB

     Dynamical RAM for                hpsi:     177.67 MB

     Dynamical RAM for                spsi:     177.67 MB

     Dynamical RAM for      wfcinit/wfcrot:     271.27 MB

     Dynamical RAM for           addusdens:    1289.31 MB

     Dynamical RAM for          addusforce:    3289.52 MB

     Estimated static dynamical RAM per process >     560.47 MB

     Estimated max dynamical RAM per process >       3.86 GB

     Estimated total dynamical RAM >      30.90 GB

     Initial potential from superposition of free atoms

     starting charge  607.99844, renormalised to  608.00000

     negative rho (up, down):  1.239E-03 0.000E+00
     Starting wfcs are  456 randomized atomic wfcs
     Checking if some PAW data can be deallocated... 

     total cpu time spent up to now is        6.4 secs

     per-process dynamical memory:  1156.3 Mb

     Self-consistent Calculation
[tb_dev] Currently allocated     1.91E+02 Mbytes, locked:    0 /  11
[tb_pin] Currently allocated     0.00E+00 Mbytes, locked:    0 /   0

     iteration #  1     ecut=    60.00 Ry     beta= 0.70
     Davidson diagonalization with overlap

---- Real-time Memory Report at c_bands before calling an iterative solver
          1955 MiB given to the printing process from OS
          1147 MiB allocation reported by mallinfo(arena+hblkhd)
        263644 MiB available memory on the node where the printing process lives
     GPU memory used/free/total (MiB): 3329 / 12831 / 16160
------------------
     ethr =  1.00E-02,  avg # of iterations =  2.0

     negative rho (up, down):  3.103E-03 0.000E+00

     total cpu time spent up to now is        9.5 secs

     total energy              =   -3335.37586575 Ry
     estimated scf accuracy    <      28.93010075 Ry
[tb_dev] Currently allocated     1.47E+03 Mbytes, locked:    0 /  15
[tb_pin] Currently allocated     6.61E+00 Mbytes, locked:    0 /   1

     iteration #  2     ecut=    60.00 Ry     beta= 0.70
     Davidson diagonalization with overlap

---- Real-time Memory Report at c_bands before calling an iterative solver
          2210 MiB given to the printing process from OS
          1224 MiB allocation reported by mallinfo(arena+hblkhd)
        252531 MiB available memory on the node where the printing process lives
     GPU memory used/free/total (MiB): 5935 / 10225 / 16160
------------------
     ethr =  4.76E-03,  avg # of iterations =  3.0

     negative rho (up, down):  3.008E-03 0.000E+00

     total cpu time spent up to now is       12.7 secs

     total energy              =   -3344.28304828 Ry
     estimated scf accuracy    <      22.97564245 Ry
[tb_dev] Currently allocated     1.47E+03 Mbytes, locked:    0 /  15
[tb_pin] Currently allocated     6.61E+00 Mbytes, locked:    0 /   1

     iteration #  3     ecut=    60.00 Ry     beta= 0.70
     Davidson diagonalization with overlap

---- Real-time Memory Report at c_bands before calling an iterative solver
          2220 MiB given to the printing process from OS
          1237 MiB allocation reported by mallinfo(arena+hblkhd)
        252395 MiB available memory on the node where the printing process lives
     GPU memory used/free/total (MiB): 5935 / 10225 / 16160
------------------
     ethr =  3.78E-03,  avg # of iterations =  2.0

     negative rho (up, down):  2.764E-03 0.000E+00

     total cpu time spent up to now is       15.4 secs

     total energy              =   -3347.52501369 Ry
     estimated scf accuracy    <       0.84421261 Ry
[tb_dev] Currently allocated     1.47E+03 Mbytes, locked:    0 /  15
[tb_pin] Currently allocated     6.61E+00 Mbytes, locked:    0 /   1

     iteration #  4     ecut=    60.00 Ry     beta= 0.70
     Davidson diagonalization with overlap

---- Real-time Memory Report at c_bands before calling an iterative solver
          2234 MiB given to the printing process from OS
          1247 MiB allocation reported by mallinfo(arena+hblkhd)
        252311 MiB available memory on the node where the printing process lives
     GPU memory used/free/total (MiB): 5935 / 10225 / 16160
------------------
     ethr =  1.39E-04,  avg # of iterations =  4.0

     negative rho (up, down):  3.435E-03 0.000E+00

     total cpu time spent up to now is       18.7 secs

     total energy              =   -3348.26106524 Ry
     estimated scf accuracy    <       1.02768904 Ry
[tb_dev] Currently allocated     1.47E+03 Mbytes, locked:    0 /  15
[tb_pin] Currently allocated     6.61E+00 Mbytes, locked:    0 /   1

     iteration #  5     ecut=    60.00 Ry     beta= 0.70
     Davidson diagonalization with overlap

---- Real-time Memory Report at c_bands before calling an iterative solver
          2241 MiB given to the printing process from OS
          1257 MiB allocation reported by mallinfo(arena+hblkhd)
        252235 MiB available memory on the node where the printing process lives
     GPU memory used/free/total (MiB): 5935 / 10225 / 16160
------------------
     ethr =  1.39E-04,  avg # of iterations =  2.0

     negative rho (up, down):  3.586E-03 0.000E+00

     total cpu time spent up to now is       21.4 secs

     total energy              =   -3348.28646390 Ry
     estimated scf accuracy    <       0.23544952 Ry
[tb_dev] Currently allocated     1.47E+03 Mbytes, locked:    0 /  15
[tb_pin] Currently allocated     6.61E+00 Mbytes, locked:    0 /   1

     iteration #  6     ecut=    60.00 Ry     beta= 0.70
     Davidson diagonalization with overlap

---- Real-time Memory Report at c_bands before calling an iterative solver
          2256 MiB given to the printing process from OS
          1265 MiB allocation reported by mallinfo(arena+hblkhd)
        252165 MiB available memory on the node where the printing process lives
     GPU memory used/free/total (MiB): 5935 / 10225 / 16160
------------------
     ethr =  3.87E-05,  avg # of iterations =  2.0

     negative rho (up, down):  3.655E-03 0.000E+00

     total cpu time spent up to now is       23.9 secs

     total energy              =   -3348.27443433 Ry
     estimated scf accuracy    <       0.10573230 Ry
[tb_dev] Currently allocated     1.47E+03 Mbytes, locked:    0 /  15
[tb_pin] Currently allocated     6.61E+00 Mbytes, locked:    0 /   1

     iteration #  7     ecut=    60.00 Ry     beta= 0.70
     Davidson diagonalization with overlap

---- Real-time Memory Report at c_bands before calling an iterative solver
          2264 MiB given to the printing process from OS
          1275 MiB allocation reported by mallinfo(arena+hblkhd)
        252087 MiB available memory on the node where the printing process lives
     GPU memory used/free/total (MiB): 5935 / 10225 / 16160
------------------
     ethr =  1.74E-05,  avg # of iterations =  2.0

     negative rho (up, down):  3.709E-03 0.000E+00

     total cpu time spent up to now is       26.6 secs

     total energy              =   -3348.26902674 Ry
     estimated scf accuracy    <       0.03373263 Ry
[tb_dev] Currently allocated     1.47E+03 Mbytes, locked:    0 /  15
[tb_pin] Currently allocated     6.61E+00 Mbytes, locked:    0 /   1

     iteration #  8     ecut=    60.00 Ry     beta= 0.70
     Davidson diagonalization with overlap

---- Real-time Memory Report at c_bands before calling an iterative solver
          2269 MiB given to the printing process from OS
          1283 MiB allocation reported by mallinfo(arena+hblkhd)
        252012 MiB available memory on the node where the printing process lives
     GPU memory used/free/total (MiB): 5935 / 10225 / 16160
------------------
     ethr =  5.55E-06,  avg # of iterations =  3.0

     negative rho (up, down):  3.681E-03 0.000E+00

     total cpu time spent up to now is       29.4 secs

     total energy              =   -3348.27708095 Ry
     estimated scf accuracy    <       0.00079056 Ry
[tb_dev] Currently allocated     1.47E+03 Mbytes, locked:    0 /  15
[tb_pin] Currently allocated     6.61E+00 Mbytes, locked:    0 /   1

     iteration #  9     ecut=    60.00 Ry     beta= 0.70
     Davidson diagonalization with overlap

---- Real-time Memory Report at c_bands before calling an iterative solver
          2285 MiB given to the printing process from OS
          1293 MiB allocation reported by mallinfo(arena+hblkhd)
        251934 MiB available memory on the node where the printing process lives
     GPU memory used/free/total (MiB): 5935 / 10225 / 16160
------------------
     ethr =  1.30E-07,  avg # of iterations =  5.0

     negative rho (up, down):  3.643E-03 0.000E+00

     total cpu time spent up to now is       32.8 secs

     total energy              =   -3348.27817624 Ry
     estimated scf accuracy    <       0.00109418 Ry
[tb_dev] Currently allocated     1.47E+03 Mbytes, locked:    0 /  15
[tb_pin] Currently allocated     6.61E+00 Mbytes, locked:    0 /   1

     iteration # 10     ecut=    60.00 Ry     beta= 0.70
     Davidson diagonalization with overlap

---- Real-time Memory Report at c_bands before calling an iterative solver
          2289 MiB given to the printing process from OS
          1304 MiB allocation reported by mallinfo(arena+hblkhd)
        251860 MiB available memory on the node where the printing process lives
     GPU memory used/free/total (MiB): 5935 / 10225 / 16160
------------------
     ethr =  1.30E-07,  avg # of iterations =  2.0

     negative rho (up, down):  3.602E-03 0.000E+00

     total cpu time spent up to now is       35.3 secs

     total energy              =   -3348.27774545 Ry
     estimated scf accuracy    <       0.00096463 Ry
[tb_dev] Currently allocated     1.47E+03 Mbytes, locked:    0 /  15
[tb_pin] Currently allocated     6.61E+00 Mbytes, locked:    0 /   1

     iteration # 11     ecut=    60.00 Ry     beta= 0.70
     Davidson diagonalization with overlap

---- Real-time Memory Report at c_bands before calling an iterative solver
          2296 MiB given to the printing process from OS
          1307 MiB allocation reported by mallinfo(arena+hblkhd)
        251841 MiB available memory on the node where the printing process lives
     GPU memory used/free/total (MiB): 5935 / 10225 / 16160
------------------
     ethr =  1.30E-07,  avg # of iterations =  2.0

     negative rho (up, down):  3.594E-03 0.000E+00

     total cpu time spent up to now is       38.2 secs

     total energy              =   -3348.27787346 Ry
     estimated scf accuracy    <       0.00004242 Ry
[tb_dev] Currently allocated     1.47E+03 Mbytes, locked:    0 /  15
[tb_pin] Currently allocated     6.61E+00 Mbytes, locked:    0 /   1

     iteration # 12     ecut=    60.00 Ry     beta= 0.70
     Davidson diagonalization with overlap

---- Real-time Memory Report at c_bands before calling an iterative solver
          2296 MiB given to the printing process from OS
          1310 MiB allocation reported by mallinfo(arena+hblkhd)
        251819 MiB available memory on the node where the printing process lives
     GPU memory used/free/total (MiB): 5935 / 10225 / 16160
------------------
     ethr =  6.98E-09,  avg # of iterations =  4.0

     negative rho (up, down):  3.596E-03 0.000E+00

     total cpu time spent up to now is       41.3 secs

     total energy              =   -3348.27789947 Ry
     estimated scf accuracy    <       0.00001176 Ry
[tb_dev] Currently allocated     1.47E+03 Mbytes, locked:    0 /  15
[tb_pin] Currently allocated     6.61E+00 Mbytes, locked:    0 /   1

     iteration # 13     ecut=    60.00 Ry     beta= 0.70
     Davidson diagonalization with overlap

---- Real-time Memory Report at c_bands before calling an iterative solver
          2299 MiB given to the printing process from OS
          1313 MiB allocation reported by mallinfo(arena+hblkhd)
        251789 MiB available memory on the node where the printing process lives
     GPU memory used/free/total (MiB): 5935 / 10225 / 16160
------------------
     ethr =  1.93E-09,  avg # of iterations =  2.0

     negative rho (up, down):  3.599E-03 0.000E+00

     total cpu time spent up to now is       43.9 secs

     total energy              =   -3348.27789693 Ry
     estimated scf accuracy    <       0.00000734 Ry
[tb_dev] Currently allocated     1.47E+03 Mbytes, locked:    0 /  15
[tb_pin] Currently allocated     6.61E+00 Mbytes, locked:    0 /   1

     iteration # 14     ecut=    60.00 Ry     beta= 0.70
     Davidson diagonalization with overlap

---- Real-time Memory Report at c_bands before calling an iterative solver
          2303 MiB given to the printing process from OS
          1316 MiB allocation reported by mallinfo(arena+hblkhd)
        251880 MiB available memory on the node where the printing process lives
     GPU memory used/free/total (MiB): 5935 / 10225 / 16160
------------------
     ethr =  1.21E-09,  avg # of iterations =  2.0

     negative rho (up, down):  3.600E-03 0.000E+00

     total cpu time spent up to now is       46.6 secs

     total energy              =   -3348.27789749 Ry
     estimated scf accuracy    <       0.00000057 Ry
[tb_dev] Currently allocated     1.47E+03 Mbytes, locked:    0 /  15
[tb_pin] Currently allocated     6.61E+00 Mbytes, locked:    0 /   1

     iteration # 15     ecut=    60.00 Ry     beta= 0.70
     Davidson diagonalization with overlap

---- Real-time Memory Report at c_bands before calling an iterative solver
          2307 MiB given to the printing process from OS
          1319 MiB allocation reported by mallinfo(arena+hblkhd)
        251748 MiB available memory on the node where the printing process lives
     GPU memory used/free/total (MiB): 5935 / 10225 / 16160
------------------
     ethr =  9.45E-11,  avg # of iterations =  3.0

     negative rho (up, down):  3.599E-03 0.000E+00

     total cpu time spent up to now is       49.5 secs

     total energy              =   -3348.27789778 Ry
     estimated scf accuracy    <       0.00000009 Ry
[tb_dev] Currently allocated     1.47E+03 Mbytes, locked:    0 /  15
[tb_pin] Currently allocated     6.61E+00 Mbytes, locked:    0 /   1

     iteration # 16     ecut=    60.00 Ry     beta= 0.70
     Davidson diagonalization with overlap

---- Real-time Memory Report at c_bands before calling an iterative solver
          2310 MiB given to the printing process from OS
          1322 MiB allocation reported by mallinfo(arena+hblkhd)
        251732 MiB available memory on the node where the printing process lives
     GPU memory used/free/total (MiB): 5935 / 10225 / 16160
------------------
     ethr =  1.48E-11,  avg # of iterations =  5.0

     negative rho (up, down):  3.599E-03 0.000E+00

     total cpu time spent up to now is       52.3 secs

     total energy              =   -3348.27789777 Ry
     estimated scf accuracy    <       0.00000006 Ry
[tb_dev] Currently allocated     1.47E+03 Mbytes, locked:    0 /  15
[tb_pin] Currently allocated     6.61E+00 Mbytes, locked:    0 /   1

     iteration # 17     ecut=    60.00 Ry     beta= 0.70
     Davidson diagonalization with overlap

---- Real-time Memory Report at c_bands before calling an iterative solver
          2310 MiB given to the printing process from OS
          1325 MiB allocation reported by mallinfo(arena+hblkhd)
        251707 MiB available memory on the node where the printing process lives
     GPU memory used/free/total (MiB): 5935 / 10225 / 16160
------------------
     ethr =  1.01E-11,  avg # of iterations =  3.0

     negative rho (up, down):  3.599E-03 0.000E+00

     total cpu time spent up to now is       55.0 secs

     total energy              =   -3348.27789778 Ry
     estimated scf accuracy    <          7.0E-09 Ry
[tb_dev] Currently allocated     1.47E+03 Mbytes, locked:    0 /  15
[tb_pin] Currently allocated     6.61E+00 Mbytes, locked:    0 /   1

     iteration # 18     ecut=    60.00 Ry     beta= 0.70
     Davidson diagonalization with overlap

---- Real-time Memory Report at c_bands before calling an iterative solver
          2312 MiB given to the printing process from OS
          1328 MiB allocation reported by mallinfo(arena+hblkhd)
        251665 MiB available memory on the node where the printing process lives
     GPU memory used/free/total (MiB): 5935 / 10225 / 16160
------------------
     ethr =  1.15E-12,  avg # of iterations =  3.0

     negative rho (up, down):  3.599E-03 0.000E+00

     total cpu time spent up to now is       58.0 secs

     total energy              =   -3348.27789778 Ry
     estimated scf accuracy    <          3.5E-10 Ry
[tb_dev] Currently allocated     1.47E+03 Mbytes, locked:    0 /  15
[tb_pin] Currently allocated     6.61E+00 Mbytes, locked:    0 /   1

     iteration # 19     ecut=    60.00 Ry     beta= 0.70
     Davidson diagonalization with overlap

---- Real-time Memory Report at c_bands before calling an iterative solver
          2318 MiB given to the printing process from OS
          1331 MiB allocation reported by mallinfo(arena+hblkhd)
        251643 MiB available memory on the node where the printing process lives
     GPU memory used/free/total (MiB): 5935 / 10225 / 16160
------------------
     ethr =  1.00E-13,  avg # of iterations =  4.0

     negative rho (up, down):  3.599E-03 0.000E+00

     total cpu time spent up to now is       60.9 secs

     total energy              =   -3348.27789779 Ry
     estimated scf accuracy    <          2.0E-10 Ry
[tb_dev] Currently allocated     1.47E+03 Mbytes, locked:    0 /  15
[tb_pin] Currently allocated     6.61E+00 Mbytes, locked:    0 /   1

     iteration # 20     ecut=    60.00 Ry     beta= 0.70
     Davidson diagonalization with overlap

---- Real-time Memory Report at c_bands before calling an iterative solver
          2318 MiB given to the printing process from OS
          1334 MiB allocation reported by mallinfo(arena+hblkhd)
        251631 MiB available memory on the node where the printing process lives
     GPU memory used/free/total (MiB): 5935 / 10225 / 16160
------------------
     ethr =  1.00E-13,  avg # of iterations =  2.0

     negative rho (up, down):  3.599E-03 0.000E+00

     total cpu time spent up to now is       63.3 secs

     End of self-consistent calculation

          k = 0.0000 0.0000 0.0000 (153454 PWs)   bands (ev):

   -25.9711 -24.9878 -24.9174 -24.7038 -24.6587 -24.5454 -24.3674 -24.3499
   -24.3404 -24.3112 -24.2564 -24.1632 -24.1283 -24.1000 -24.0079 -23.9832
   -23.9660 -23.9585 -23.9128 -23.8743 -23.8345 -23.8227 -23.7920 -23.7631
   -23.7300 -23.6711 -23.6369 -23.6220 -23.6055 -23.5909 -23.5546 -23.5186
   -23.4990 -23.4806 -23.4703 -23.4315 -23.3863 -23.3423 -23.2964 -23.2786
   -23.2689 -23.2574 -23.2228 -23.1695 -23.0962 -23.0857 -23.0733 -22.9523
   -22.9325 -22.8847 -22.8825 -22.8367 -22.8164 -22.7328 -22.7179 -22.6930
   -22.6786 -22.6502 -22.6463 -22.6275 -22.6213 -22.5578 -22.4920 -22.4428
   -22.4107 -22.3645 -22.2729 -22.2555 -22.2196 -22.2069 -21.9789 -21.9450
   -21.2881 -21.1997 -21.1058 -20.7861 -14.0177 -13.1762 -13.1316 -12.9917
   -12.8968 -12.7254 -12.6619 -12.5380 -12.5022 -12.3937 -12.3702 -12.3260
   -12.2807 -12.2430 -12.2382 -12.1602 -12.1507 -12.1456 -12.0555 -12.0528
   -12.0358 -12.0023 -11.9850 -11.9601 -11.8857 -11.8818 -11.8609 -11.8364
   -11.7774 -11.7676 -11.7516 -11.7228 -11.6632 -11.6496 -11.6254 -11.6185
   -11.5945 -11.5745 -11.5552 -11.5059 -11.4955 -11.4625 -11.4406 -11.4305
   -11.3905 -11.3770 -11.3284 -11.2662 -11.2335 -11.2271 -11.1823 -11.1680
   -11.1516 -11.1218 -11.0451 -11.0371 -11.0306 -10.9812 -10.9548 -10.9374
   -10.9163 -10.8795 -10.7439 -10.7241 -10.6927 -10.6655 -10.6430 -10.6301
   -10.6004 -10.3951 -10.1882 -10.1625  -9.9641  -9.9465  -9.6678  -9.4412
    -9.3959  -9.3046  -9.2799  -9.2541  -9.2316  -9.1849  -9.1023  -9.0244
    -8.8937  -8.8585  -8.8461  -8.8041  -8.7470  -8.7125  -8.6348  -8.5884
    -8.5312  -8.4984  -8.4169  -8.4108  -8.3736  -8.3421  -8.2858  -8.2580
    -8.2303  -8.2152  -8.1686  -8.1300  -8.0855  -8.0586  -8.0494  -7.9939
    -7.9915  -7.9300  -7.9197  -7.8833  -7.8677  -7.8310  -7.7561  -7.7092
    -7.6839  -7.6691  -7.6256  -7.5833  -7.5107  -7.4564  -7.4253  -7.3943
    -7.3648  -7.3277  -7.3085  -7.2677  -7.2132  -7.2010  -7.1312  -7.0664
    -7.0602  -7.0536  -6.9884  -6.9834  -6.9737  -6.9126  -6.8753  -6.8511
    -6.8322  -6.7848  -6.7716  -6.7310  -6.7029  -6.6545  -6.5942  -6.5773
    -6.5619  -6.5160  -6.4525  -6.4442  -6.4027  -6.3999  -6.3848  -6.3788
    -6.3457  -6.3020  -6.2894  -6.2846  -6.2241  -6.1972  -6.1648  -6.1570
    -6.1341  -6.1200  -6.1130  -6.0798  -6.0627  -6.0534  -6.0390  -6.0125
    -5.9709  -5.9494  -5.8981  -5.8865  -5.8740  -5.8409  -5.8064  -5.7903
    -5.7825  -5.7686  -5.7501  -5.7134  -5.7128  -5.6884  -5.6637  -5.6186
    -5.5730  -5.5623  -5.5490  -5.5387  -5.5118  -5.5067  -5.4578  -5.4351
    -5.3619  -5.3425  -5.3337  -5.2875  -5.2813  -5.2679  -5.2430  -5.2334
    -5.1949  -5.1798  -5.0984  -5.0668  -5.0631  -5.0048  -4.9709  -4.9280
    -4.8900  -4.8761  -4.8727  -4.7609  -4.7092  -4.7075  -4.6825  -4.6560
    -4.6424  -4.5983  -4.4769  -3.9701  -3.7212  -3.6457  -3.4798  -3.2477

     occupation numbers 
     1.0000   1.0000   1.0000   1.0000   1.0000   1.0000   1.0000   1.0000
     1.0000   1.0000   1.0000   1.0000   1.0000   1.0000   1.0000   1.0000
     1.0000   1.0000   1.0000   1.0000   1.0000   1.0000   1.0000   1.0000
     1.0000   1.0000   1.0000   1.0000   1.0000   1.0000   1.0000   1.0000
     1.0000   1.0000   1.0000   1.0000   1.0000   1.0000   1.0000   1.0000
     1.0000   1.0000   1.0000   1.0000   1.0000   1.0000   1.0000   1.0000
     1.0000   1.0000   1.0000   1.0000   1.0000   1.0000   1.0000   1.0000
     1.0000   1.0000   1.0000   1.0000   1.0000   1.0000   1.0000   1.0000
     1.0000   1.0000   1.0000   1.0000   1.0000   1.0000   1.0000   1.0000
     1.0000   1.0000   1.0000   1.0000   1.0000   1.0000   1.0000   1.0000
     1.0000   1.0000   1.0000   1.0000   1.0000   1.0000   1.0000   1.0000
     1.0000   1.0000   1.0000   1.0000   1.0000   1.0000   1.0000   1.0000
     1.0000   1.0000   1.0000   1.0000   1.0000   1.0000   1.0000   1.0000
     1.0000   1.0000   1.0000   1.0000   1.0000   1.0000   1.0000   1.0000
     1.0000   1.0000   1.0000   1.0000   1.0000   1.0000   1.0000   1.0000
     1.0000   1.0000   1.0000   1.0000   1.0000   1.0000   1.0000   1.0000
     1.0000   1.0000   1.0000   1.0000   1.0000   1.0000   1.0000   1.0000
     1.0000   1.0000   1.0000   1.0000   1.0000   1.0000   1.0000   1.0000
     1.0000   1.0000   1.0000   1.0000   1.0000   1.0000   1.0000   1.0000
     1.0000   1.0000   1.0000   1.0000   1.0000   1.0000   1.0000   1.0000
     1.0000   1.0000   1.0000   1.0000   1.0000   1.0000   1.0000   1.0000
     1.0000   1.0000   1.0000   1.0000   1.0000   1.0000   1.0000   1.0000
     1.0000   1.0000   1.0000   1.0000   1.0000   1.0000   1.0000   1.0000
     1.0000   1.0000   1.0000   1.0000   1.0000   1.0000   1.0000   1.0000
     1.0000   1.0000   1.0000   1.0000   1.0000   1.0000   1.0000   1.0000
     1.0000   1.0000   1.0000   1.0000   1.0000   1.0000   1.0000   1.0000
     1.0000   1.0000   1.0000   1.0000   1.0000   1.0000   1.0000   1.0000
     1.0000   1.0000   1.0000   1.0000   1.0000   1.0000   1.0000   1.0000
     1.0000   1.0000   1.0000   1.0000   1.0000   1.0000   1.0000   1.0000
     1.0000   1.0000   1.0000   1.0000   1.0000   1.0000   1.0000   1.0000
     1.0000   1.0000   1.0000   1.0000   1.0000   1.0000   1.0000   1.0000
     1.0000   1.0000   1.0000   1.0000   1.0000   1.0000   1.0000   1.0000
     1.0000   1.0000   1.0000   1.0000   1.0000   1.0000   1.0000   1.0000
     1.0000   1.0000   1.0000   1.0000   1.0000   1.0000   1.0000   1.0000
     1.0000   1.0000   1.0000   1.0000   1.0000   1.0000   1.0000   1.0000
     1.0000   1.0000   1.0000   1.0000   1.0000   1.0000   1.0000   1.0000
     1.0000   1.0000   1.0000   1.0000   1.0000   1.0000   1.0000   1.0000
     1.0000   1.0000   1.0000   1.0000   1.0000   1.0000   1.0000   1.0000

     highest occupied level (ev):    -3.2477

!    total energy              =   -3348.27789778 Ry
     estimated scf accuracy    <          7.5E-11 Ry

     The total energy is the sum of the following terms:
     one-electron contribution =   -9768.68589325 Ry
     hartree contribution      =    5040.35767024 Ry
     xc contribution           =    -671.37517733 Ry
     ewald contribution        =    2773.82203948 Ry
     one-center paw contrib.   =    -722.39653693 Ry
      -> PAW hartree energy AE =     283.52260185 Ry
      -> PAW hartree energy PS =    -282.17183806 Ry
      -> PAW xc energy AE      =    -170.13138804 Ry
      -> PAW xc energy PS      =      73.73152690 Ry
      -> total E_H with PAW    =    5041.70843403 Ry
      -> total E_XC with PAW   =    -767.77503847 Ry

     convergence has been achieved in  20 iterations

     negative rho (up, down):  3.599E-03 0.000E+00

     Forces acting on atoms (cartesian axes, Ry/au):

     atom    1 type  2   force =     0.00422231   -0.02426886    0.00454373
     atom    2 type  1   force =    -0.01077332    0.04738168   -0.03670130
     atom    3 type  1   force =     0.00027850   -0.01423726    0.03659270
     atom    4 type  2   force =    -0.00228960    0.01778596    0.02572034
     atom    5 type  1   force =    -0.02772143   -0.02331101   -0.04971084
     atom    6 type  1   force =     0.02235545    0.01936654    0.03214662
     atom    7 type  2   force =     0.00065127    0.02256030    0.01635539
     atom    8 type  1   force =     0.00071800   -0.04392461   -0.04034925
     atom    9 type  1   force =    -0.00827702    0.02626245    0.03875118
     atom   10 type  2   force =     0.02824442   -0.01067586    0.02881557
     atom   11 type  1   force =    -0.05390100   -0.01705286   -0.01389082
     atom   12 type  1   force =     0.03639636    0.02172014    0.00590911
     atom   13 type  2   force =     0.00265227   -0.06135074   -0.01809003
     atom   14 type  1   force =     0.01192860    0.00752486    0.00293490
     atom   15 type  1   force =    -0.00741191    0.05451264    0.01443468
     atom   16 type  2   force =    -0.00415787   -0.00075629   -0.04338164
     atom   17 type  1   force =    -0.02109605    0.00447758    0.02405885
     atom   18 type  1   force =     0.00986256    0.00558362    0.01355827
     atom   19 type  2   force =    -0.01345241    0.03306146    0.02022087
     atom   20 type  1   force =     0.01616147    0.02349550    0.00506075
     atom   21 type  1   force =     0.00519749   -0.06015142   -0.01132538
     atom   22 type  2   force =    -0.00217691   -0.01406801    0.00573231
     atom   23 type  1   force =    -0.00202900    0.02000394   -0.03194015
     atom   24 type  1   force =    -0.02174392   -0.03857835    0.01940123
     atom   25 type  2   force =     0.00579663    0.00276586   -0.00069963
     atom   26 type  1   force =    -0.03085267    0.00723294   -0.01323362
     atom   27 type  1   force =     0.02926199   -0.00194490    0.00425880
     atom   28 type  2   force =    -0.01278142   -0.02130511   -0.00641089
     atom   29 type  1   force =     0.00079629    0.03255078   -0.00006157
     atom   30 type  1   force =     0.02230579   -0.03063604   -0.01282249
     atom   31 type  2   force =    -0.00857539    0.01255586    0.00382070
     atom   32 type  1   force =    -0.01954366    0.00094443   -0.01165952
     atom   33 type  1   force =     0.03655557   -0.02609885    0.02209130
     atom   34 type  2   force =     0.01788167    0.00638091    0.01370962
     atom   35 type  1   force =    -0.01957285   -0.02986180    0.01788714
     atom   36 type  1   force =     0.01156109    0.01872124   -0.02506371
     atom   37 type  2   force =    -0.02081113    0.02698760    0.01179681
     atom   38 type  1   force =     0.03815707   -0.01243068   -0.01864747
     atom   39 type  1   force =    -0.00452103   -0.00848186    0.00438533
     atom   40 type  2   force =     0.03368434    0.01821655    0.01348125
     atom   41 type  1   force =    -0.01256409    0.02295288   -0.04994738
     atom   42 type  1   force =    -0.03325964   -0.03857698    0.03623708
     atom   43 type  2   force =    -0.02019188    0.01827430    0.02425205
     atom   44 type  1   force =     0.01279341   -0.01166820   -0.02860283
     atom   45 type  1   force =    -0.00955168   -0.00733014    0.01379094
     atom   46 type  2   force =    -0.00448285   -0.02909130    0.01620248
     atom   47 type  1   force =    -0.00599148    0.01136084   -0.05769969
     atom   48 type  1   force =     0.01201164    0.02376251    0.04702652
     atom   49 type  2   force =    -0.02427235   -0.00684700   -0.03082384
     atom   50 type  1   force =     0.05935204    0.00150971    0.00232889
     atom   51 type  1   force =    -0.03890063    0.01146978    0.03337070
     atom   52 type  2   force =    -0.01312547    0.00546868    0.02334007
     atom   53 type  1   force =     0.03022215   -0.01392647    0.00659655
     atom   54 type  1   force =    -0.02231915    0.00193900   -0.00178669
     atom   55 type  2   force =     0.02259508    0.00824432   -0.04406918
     atom   56 type  1   force =     0.01367159    0.01306215    0.05596885
     atom   57 type  1   force =    -0.02771387   -0.02081166   -0.01280469
     atom   58 type  2   force =    -0.01291161   -0.00690316    0.02546310
     atom   59 type  1   force =    -0.01591845   -0.00029018   -0.01635032
     atom   60 type  1   force =     0.02257069   -0.00103880    0.01168601
     atom   61 type  2   force =     0.02492770    0.01759740   -0.01473663
     atom   62 type  1   force =     0.04219626    0.00392270   -0.00100949
     atom   63 type  1   force =    -0.05221323   -0.02409885    0.01112937
     atom   64 type  2   force =    -0.00124296   -0.01004450    0.02309908
     atom   65 type  1   force =    -0.03119957   -0.00685218    0.03267069
     atom   66 type  1   force =     0.04454998    0.01022940   -0.04074246
     atom   67 type  2   force =    -0.01312622   -0.00724684   -0.01086836
     atom   68 type  1   force =     0.00064236   -0.01944547   -0.04233211
     atom   69 type  1   force =     0.00003802    0.03735228    0.04464744
     atom   70 type  2   force =    -0.01887596   -0.01570170   -0.01647731
     atom   71 type  1   force =    -0.00441741    0.00241155   -0.01377888
     atom   72 type  1   force =     0.00358330    0.01316596    0.02502306
     atom   73 type  2   force =     0.02546056   -0.01465739    0.03448526
     atom   74 type  1   force =     0.01175647    0.00996314    0.01986718
     atom   75 type  1   force =    -0.02812356    0.01300190   -0.05004144
     atom   76 type  2   force =     0.02989157    0.02746589    0.01861445
     atom   77 type  1   force =     0.01129087   -0.01879183    0.01697065
     atom   78 type  1   force =    -0.04562335   -0.01668719   -0.02286214
     atom   79 type  2   force =    -0.01457864   -0.00610408   -0.02916366
     atom   80 type  1   force =     0.03397997    0.01971465    0.04742991
     atom   81 type  1   force =    -0.01241470   -0.00885395   -0.03351991
     atom   82 type  2   force =    -0.00231263   -0.00898902   -0.02079210
     atom   83 type  1   force =     0.01845970   -0.02639660   -0.00153202
     atom   84 type  1   force =    -0.02307946    0.03292404    0.01411180
     atom   85 type  2   force =     0.02796568    0.01467564    0.00758490
     atom   86 type  1   force =    -0.00958684   -0.01322766   -0.01417617
     atom   87 type  1   force =    -0.03799096    0.00787617   -0.00186302
     atom   88 type  2   force =    -0.02872284   -0.02007828   -0.04599124
     atom   89 type  1   force =     0.05268031    0.00272207   -0.01648988
     atom   90 type  1   force =    -0.03231903    0.01361250    0.04337350
     atom   91 type  2   force =     0.00559353   -0.01734570   -0.01210336
     atom   92 type  1   force =     0.02834856    0.02201952    0.04973371
     atom   93 type  1   force =    -0.03674637    0.00089398   -0.02561809
     atom   94 type  2   force =     0.01077908    0.00431024    0.03923807
     atom   95 type  1   force =     0.03142323   -0.03061194   -0.02902313
     atom   96 type  1   force =    -0.04636321    0.03321452   -0.00577331
     atom   97 type  2   force =    -0.00319727   -0.00554113   -0.01164810
     atom   98 type  1   force =     0.00283422    0.00112306    0.01139156
     atom   99 type  1   force =    -0.00431921    0.00201767   -0.00797832
     atom  100 type  2   force =    -0.02074541    0.00393834   -0.02012982
     atom  101 type  1   force =     0.00344248    0.01834061   -0.00904539
     atom  102 type  1   force =     0.02907692   -0.01187657    0.01390703
     atom  103 type  2   force =     0.00774317    0.03566378    0.00599685
     atom  104 type  1   force =     0.02234768    0.01511877   -0.03856742
     atom  105 type  1   force =    -0.02528731   -0.02222218    0.03318053
     atom  106 type  2   force =     0.01266328   -0.01375701    0.00100545
     atom  107 type  1   force =     0.00561467    0.01309898    0.02471344
     atom  108 type  1   force =    -0.01849210   -0.01353330   -0.01348518
     atom  109 type  2   force =    -0.01262836    0.03560748    0.00334086
     atom  110 type  1   force =     0.00984428   -0.03931047   -0.00268431
     atom  111 type  1   force =     0.00930707    0.00729626    0.01858250
     atom  112 type  2   force =     0.00706329    0.03089278   -0.01916845
     atom  113 type  1   force =    -0.02482858    0.03160584    0.02883057
     atom  114 type  1   force =     0.01980006   -0.05508612   -0.01736153
     atom  115 type  2   force =     0.00869395    0.01611044   -0.00763084
     atom  116 type  1   force =    -0.01478284    0.02610958   -0.01385125
     atom  117 type  1   force =    -0.00625916   -0.02977451    0.03936152
     atom  118 type  2   force =     0.02584328    0.00211033    0.00029351
     atom  119 type  1   force =    -0.03588121   -0.03043957    0.04563775
     atom  120 type  1   force =     0.00163011    0.01586652   -0.05169412
     atom  121 type  2   force =    -0.05146112   -0.01830461    0.00002415
     atom  122 type  1   force =     0.05170737    0.02050642    0.00288245
     atom  123 type  1   force =    -0.00506987   -0.01624605    0.00571794
     atom  124 type  2   force =     0.02036281    0.01733307    0.00816661
     atom  125 type  1   force =     0.01728407   -0.04214370   -0.03890312
     atom  126 type  1   force =    -0.03597764    0.01714713    0.02912545
     atom  127 type  2   force =     0.01808363    0.03406638   -0.02642592
     atom  128 type  1   force =     0.00376480    0.01713074   -0.01133093
     atom  129 type  1   force =    -0.02563378   -0.04359081    0.03160972
     atom  130 type  2   force =    -0.03334440    0.00010468    0.00545045
     atom  131 type  1   force =     0.00386084    0.00391253    0.03626222
     atom  132 type  1   force =     0.03598579    0.00569153   -0.03740168
     atom  133 type  2   force =    -0.01226926    0.00113414   -0.01937919
     atom  134 type  1   force =     0.03107120   -0.01034928    0.03847414
     atom  135 type  1   force =    -0.00462532    0.01394660   -0.02083805
     atom  136 type  2   force =     0.01218843   -0.01108800    0.01739209
     atom  137 type  1   force =     0.01479342    0.01503328   -0.05732467
     atom  138 type  1   force =    -0.01766343    0.00090677    0.04018363
     atom  139 type  2   force =    -0.04247371   -0.00161572    0.03748359
     atom  140 type  1   force =    -0.01096052    0.00864618   -0.00565934
     atom  141 type  1   force =     0.04208774   -0.00200168   -0.04109682
     atom  142 type  2   force =    -0.01410533    0.01523913   -0.04011943
     atom  143 type  1   force =    -0.01007389    0.03971937    0.03213335
     atom  144 type  1   force =     0.01917675   -0.05348455   -0.00403373
     atom  145 type  2   force =     0.01875574   -0.01659711   -0.03715226
     atom  146 type  1   force =    -0.02797421    0.05014047   -0.00592639
     atom  147 type  1   force =     0.01189095   -0.03926600    0.03885744
     atom  148 type  2   force =     0.01513367    0.03133096    0.00910734
     atom  149 type  1   force =    -0.03664958    0.02446398   -0.01286805
     atom  150 type  1   force =     0.01264449   -0.05584721   -0.00386377
     atom  151 type  2   force =     0.04071024    0.05272411   -0.01359426
     atom  152 type  1   force =     0.01896768   -0.02977075    0.03948199
     atom  153 type  1   force =    -0.03584378   -0.00422288   -0.03655223
     atom  154 type  2   force =    -0.03613448   -0.00134507    0.00734598
     atom  155 type  1   force =     0.03604847    0.01410390    0.03937377
     atom  156 type  1   force =     0.00733860   -0.01638837   -0.04943252
     atom  157 type  2   force =     0.01128397   -0.02875311    0.00576169
     atom  158 type  1   force =    -0.01970758    0.03765447    0.04116638
     atom  159 type  1   force =     0.00795071   -0.01504890   -0.04564703
     atom  160 type  2   force =     0.03956505   -0.00876901   -0.00420982
     atom  161 type  1   force =    -0.02781119   -0.03718096   -0.03073340
     atom  162 type  1   force =    -0.00299578    0.04760874    0.03222633
     atom  163 type  2   force =    -0.01516851    0.00031685   -0.02519985
     atom  164 type  1   force =     0.04841755    0.02074002    0.00558271
     atom  165 type  1   force =    -0.02982925   -0.00893757    0.02277344
     atom  166 type  2   force =     0.02152080   -0.00860357    0.01008959
     atom  167 type  1   force =    -0.01714067   -0.02803997   -0.04780744
     atom  168 type  1   force =    -0.00406948    0.04178171    0.03623545
     atom  169 type  2   force =    -0.01303667    0.01333901    0.00773615
     atom  170 type  1   force =    -0.01919957    0.02737842    0.00112247
     atom  171 type  1   force =     0.01876144   -0.06065308   -0.01070428
     atom  172 type  2   force =     0.02788913   -0.01481305   -0.00186575
     atom  173 type  1   force =    -0.00868671   -0.03275698    0.02644333
     atom  174 type  1   force =    -0.01154758    0.02917070   -0.02317609
     atom  175 type  2   force =     0.01181507    0.01399949   -0.03418195
     atom  176 type  1   force =     0.00843568   -0.04942240   -0.02007710
     atom  177 type  1   force =    -0.00875434    0.02903552    0.04761658
     atom  178 type  2   force =     0.00725351    0.03031774   -0.01409821
     atom  179 type  1   force =    -0.04701652   -0.00140859   -0.01091449
[...]
     atom   31 type  2   force =     0.00000034    0.00000071   -0.00000006
     atom   32 type  1   force =     0.00000014    0.00000008    0.00000001
     atom   33 type  1   force =    -0.00000007    0.00000017   -0.00000007
     atom   34 type  2   force =    -0.00000038   -0.00000038   -0.00000032
     atom   35 type  1   force =     0.00000000    0.00000006   -0.00000013
     atom   36 type  1   force =    -0.00000010   -0.00000014    0.00000001
     atom   37 type  2   force =    -0.00000051    0.00000061   -0.00000035
     atom   38 type  1   force =    -0.00000020    0.00000012    0.00000001
     atom   39 type  1   force =    -0.00000002    0.00000009   -0.00000018
     atom   40 type  2   force =     0.00000088    0.00000053    0.00000030
     atom   41 type  1   force =     0.00000015   -0.00000002    0.00000025
     atom   42 type  1   force =     0.00000022    0.00000020   -0.00000006
     atom   43 type  2   force =     0.00000017    0.00000004    0.00000065
     atom   44 type  1   force =    -0.00000006    0.00000001    0.00000022
     atom   45 type  1   force =     0.00000018   -0.00000003    0.00000006
     atom   46 type  2   force =    -0.00000005   -0.00000069    0.00000042
     atom   47 type  1   force =     0.00000000   -0.00000014    0.00000020
     atom   48 type  1   force =    -0.00000004   -0.00000017   -0.00000011
     atom   49 type  2   force =    -0.00000066    0.00000015   -0.00000085
     atom   50 type  1   force =    -0.00000040    0.00000000   -0.00000013
     atom   51 type  1   force =     0.00000012    0.00000003   -0.00000033
     atom   52 type  2   force =    -0.00000003    0.00000061   -0.00000024
     atom   53 type  1   force =    -0.00000017    0.00000013   -0.00000005
     atom   54 type  1   force =     0.00000016    0.00000008   -0.00000007
     atom   55 type  2   force =     0.00000039    0.00000026   -0.00000110
     atom   56 type  1   force =     0.00000001   -0.00000000   -0.00000033
     atom   57 type  1   force =     0.00000019    0.00000012   -0.00000010
     atom   58 type  2   force =    -0.00000040    0.00000008    0.00000014
     atom   59 type  1   force =     0.00000001   -0.00000002    0.00000009
     atom   60 type  1   force =    -0.00000009   -0.00000002    0.00000003
     atom   61 type  2   force =     0.00000028    0.00000039   -0.00000072
     atom   62 type  1   force =    -0.00000010    0.00000004   -0.00000014
     atom   63 type  1   force =     0.00000023    0.00000015   -0.00000015
     atom   64 type  2   force =     0.00000028   -0.00000031    0.00000102
     atom   65 type  1   force =     0.00000018    0.00000002    0.00000007
     atom   66 type  1   force =    -0.00000009   -0.00000009    0.00000027
     atom   67 type  2   force =     0.00000019   -0.00000033    0.00000004
     atom   68 type  1   force =     0.00000009    0.00000003    0.00000019
     atom   69 type  1   force =     0.00000005   -0.00000023   -0.00000020
     atom   70 type  2   force =    -0.00000021    0.00000026   -0.00000022
     atom   71 type  1   force =     0.00000000    0.00000013    0.00000006
     atom   72 type  1   force =    -0.00000005    0.00000001   -0.00000006
     atom   73 type  2   force =     0.00000026   -0.00000054    0.00000109
     atom   74 type  1   force =    -0.00000013   -0.00000012    0.00000012
     atom   75 type  1   force =     0.00000011   -0.00000012    0.00000032
     atom   76 type  2   force =     0.00000037    0.00000108    0.00000037
     atom   77 type  1   force =    -0.00000011    0.00000032   -0.00000006
     atom   78 type  1   force =     0.00000032    0.00000022    0.00000016
     atom   79 type  2   force =    -0.00000095   -0.00000019   -0.00000003
     atom   80 type  1   force =    -0.00000015   -0.00000010   -0.00000010
     atom   81 type  1   force =    -0.00000008   -0.00000001    0.00000013
     atom   82 type  2   force =     0.00000007   -0.00000069   -0.00000053
     atom   83 type  1   force =    -0.00000011    0.00000001   -0.00000009
     atom   84 type  1   force =     0.00000006   -0.00000020   -0.00000009
     atom   85 type  2   force =     0.00000043    0.00000032   -0.00000022
     atom   86 type  1   force =     0.00000004    0.00000008   -0.00000004
     atom   87 type  1   force =     0.00000018   -0.00000005   -0.00000006
     atom   88 type  2   force =    -0.00000033   -0.00000052   -0.00000060
     atom   89 type  1   force =    -0.00000022   -0.00000007   -0.00000007
     atom   90 type  1   force =     0.00000004   -0.00000010   -0.00000022
     atom   91 type  2   force =     0.00000046   -0.00000033   -0.00000064
     atom   92 type  1   force =     0.00000001   -0.00000014   -0.00000029
     atom   93 type  1   force =     0.00000027   -0.00000003    0.00000003
     atom   94 type  2   force =     0.00000013    0.00000003    0.00000076
     atom   95 type  1   force =    -0.00000006    0.00000010    0.00000021
     atom   96 type  1   force =     0.00000020   -0.00000013    0.00000011
     atom   97 type  2   force =     0.00000050   -0.00000013   -0.00000013
     atom   98 type  1   force =     0.00000011   -0.00000002   -0.00000004
     atom   99 type  1   force =     0.00000006    0.00000003    0.00000005
     atom  100 type  2   force =    -0.00000067   -0.00000017   -0.00000000
     atom  101 type  1   force =    -0.00000007   -0.00000008    0.00000013
     atom  102 type  1   force =    -0.00000018    0.00000004   -0.00000005
     atom  103 type  2   force =    -0.00000006    0.00000079    0.00000054
     atom  104 type  1   force =    -0.00000008    0.00000007    0.00000018
     atom  105 type  1   force =     0.00000006    0.00000015   -0.00000006
     atom  106 type  2   force =     0.00000039   -0.00000043    0.00000003
     atom  107 type  1   force =     0.00000006   -0.00000012   -0.00000007
     atom  108 type  1   force =     0.00000008   -0.00000003    0.00000010
     atom  109 type  2   force =    -0.00000020    0.00000045   -0.00000025
     atom  110 type  1   force =    -0.00000006    0.00000014   -0.00000002
     atom  111 type  1   force =    -0.00000006   -0.00000005   -0.00000012
     atom  112 type  2   force =    -0.00000013    0.00000088   -0.00000080
     atom  113 type  1   force =     0.00000006    0.00000008   -0.00000020
     atom  114 type  1   force =    -0.00000010    0.00000031   -0.00000002
     atom  115 type  2   force =    -0.00000014    0.00000023    0.00000001
     atom  116 type  1   force =    -0.00000003   -0.00000004    0.00000012
     atom  117 type  1   force =    -0.00000000    0.00000012   -0.00000004
     atom  118 type  2   force =     0.00000044    0.00000056    0.00000020
     atom  119 type  1   force =     0.00000012    0.00000015   -0.00000007
     atom  120 type  1   force =     0.00000004    0.00000000    0.00000020
     atom  121 type  2   force =    -0.00000137   -0.00000013    0.00000036
     atom  122 type  1   force =    -0.00000032   -0.00000007    0.00000005
     atom  123 type  1   force =    -0.00000008    0.00000013    0.00000013
     atom  124 type  2   force =     0.00000134    0.00000059    0.00000041
     atom  125 type  1   force =     0.00000015    0.00000021    0.00000021
     atom  126 type  1   force =     0.00000038   -0.00000001   -0.00000011
     atom  127 type  2   force =    -0.00000003    0.00000028   -0.00000051
     atom  128 type  1   force =    -0.00000009   -0.00000008   -0.00000005
     atom  129 type  1   force =     0.00000004    0.00000015   -0.00000018
     atom  130 type  2   force =    -0.00000043   -0.00000024    0.00000028
     atom  131 type  1   force =    -0.00000000   -0.00000008   -0.00000009
     atom  132 type  1   force =    -0.00000010   -0.00000007    0.00000013
     atom  133 type  2   force =    -0.00000014    0.00000023   -0.00000056
     atom  134 type  1   force =    -0.00000009    0.00000010   -0.00000017
     atom  135 type  1   force =     0.00000010    0.00000005   -0.00000000
     atom  136 type  2   force =     0.00000060   -0.00000047    0.00000103
     atom  137 type  1   force =     0.00000005   -0.00000011    0.00000030
     atom  138 type  1   force =     0.00000018   -0.00000003    0.00000003
     atom  139 type  2   force =    -0.00000126    0.00000010    0.00000055
     atom  140 type  1   force =    -0.00000016    0.00000008   -0.00000018
     atom  141 type  1   force =    -0.00000035   -0.00000000    0.00000023
     atom  142 type  2   force =    -0.00000039    0.00000044   -0.00000108
     atom  143 type  1   force =    -0.00000003   -0.00000012   -0.00000030
     atom  144 type  1   force =    -0.00000016    0.00000026   -0.00000012
     atom  145 type  2   force =     0.00000024   -0.00000059   -0.00000079
     atom  146 type  1   force =     0.00000015   -0.00000028   -0.00000008
     atom  147 type  1   force =    -0.00000002    0.00000005   -0.00000029
     atom  148 type  2   force =     0.00000035    0.00000070    0.00000006
     atom  149 type  1   force =     0.00000021   -0.00000003    0.00000002
     atom  150 type  1   force =     0.00000003    0.00000028    0.00000001
     atom  151 type  2   force =     0.00000069    0.00000115    0.00000008
     atom  152 type  1   force =     0.00000002    0.00000031   -0.00000022
     atom  153 type  1   force =     0.00000031    0.00000016    0.00000016
     atom  154 type  2   force =    -0.00000105   -0.00000026    0.00000016
     atom  155 type  1   force =    -0.00000024   -0.00000009   -0.00000012
     atom  156 type  1   force =    -0.00000013    0.00000002    0.00000019
     atom  157 type  2   force =     0.00000064   -0.00000098    0.00000046
     atom  158 type  1   force =     0.00000014   -0.00000025   -0.00000007
     atom  159 type  1   force =     0.00000010   -0.00000008    0.00000024
     atom  160 type  2   force =     0.00000081   -0.00000036   -0.00000015
     atom  161 type  1   force =     0.00000017    0.00000006    0.00000007
     atom  162 type  1   force =     0.00000011   -0.00000015   -0.00000010
     atom  163 type  2   force =    -0.00000041    0.00000023   -0.00000082
     atom  164 type  1   force =    -0.00000027   -0.00000005   -0.00000012
     atom  165 type  1   force =     0.00000005    0.00000008   -0.00000021
     atom  166 type  2   force =     0.00000080   -0.00000004    0.00000031
     atom  167 type  1   force =     0.00000016    0.00000009    0.00000019
     atom  168 type  1   force =     0.00000015   -0.00000011   -0.00000009
     atom  169 type  2   force =     0.00000018    0.00000045    0.00000030
     atom  170 type  1   force =     0.00000003    0.00000000    0.00000003
     atom  171 type  1   force =    -0.00000006    0.00000013    0.00000007
     atom  172 type  2   force =     0.00000091   -0.00000053    0.00000044
     atom  173 type  1   force =     0.00000014    0.00000010   -0.00000013
     atom  174 type  1   force =     0.00000018   -0.00000017    0.00000012
     atom  175 type  2   force =     0.00000056    0.00000016   -0.00000100
     atom  176 type  1   force =     0.00000007    0.00000033    0.00000001
     atom  177 type  1   force =     0.00000015   -0.00000006   -0.00000034
     atom  178 type  2   force =     0.00000007    0.00000096   -0.00000032
     atom  179 type  1   force =     0.00000026    0.00000018    0.00000000
     atom  180 type  1   force =    -0.00000022    0.00000028   -0.00000016
     atom  181 type  2   force =     0.00000103   -0.00000005   -0.00000043
     atom  182 type  1   force =    -0.00000001   -0.00000006   -0.00000013
     atom  183 type  1   force =     0.00000024   -0.00000002   -0.00000004
     atom  184 type  2   force =    -0.00000067    0.00000009   -0.00000067
     atom  185 type  1   force =    -0.00000013    0.00000013   -0.00000018
     atom  186 type  1   force =    -0.00000009   -0.00000013   -0.00000007
     atom  187 type  2   force =    -0.00000011    0.00000042    0.00000051
     atom  188 type  1   force =     0.00000006    0.00000017    0.00000010
     atom  189 type  1   force =    -0.00000012   -0.00000006    0.00000011
     atom  190 type  2   force =     0.00000130    0.00000005   -0.00000001
     atom  191 type  1   force =     0.00000007    0.00000022    0.00000003
     atom  192 type  1   force =     0.00000034   -0.00000008   -0.00000003
     atom  193 type  2   force =    -0.00000072    0.00000028   -0.00000054
     atom  194 type  1   force =     0.00000004    0.00000001   -0.00000011
     atom  195 type  1   force =    -0.00000014    0.00000003   -0.00000005
     atom  196 type  2   force =    -0.00000024    0.00000016   -0.00000053
     atom  197 type  1   force =    -0.00000007    0.00000005   -0.00000013
     atom  198 type  1   force =     0.00000004    0.00000006    0.00000002
     atom  199 type  2   force =     0.00000057   -0.00000084   -0.00000008
     atom  200 type  1   force =     0.00000014    0.00000003    0.00000005
     atom  201 type  1   force =     0.00000007   -0.00000013   -0.00000005
     atom  202 type  2   force =    -0.00000024   -0.00000030   -0.00000063
     atom  203 type  1   force =     0.00000005    0.00000004   -0.00000015
     atom  204 type  1   force =    -0.00000008   -0.00000015   -0.00000003
     atom  205 type  2   force =     0.00000054   -0.00000105   -0.00000012
     atom  206 type  1   force =     0.00000021   -0.00000028   -0.00000004
     atom  207 type  1   force =    -0.00000015   -0.00000012    0.00000004
     atom  208 type  2   force =     0.00000006   -0.00000068    0.00000089
     atom  209 type  1   force =    -0.00000013   -0.00000014    0.00000008
     atom  210 type  1   force =     0.00000019   -0.00000010    0.00000022
     atom  211 type  2   force =     0.00000030    0.00000009   -0.00000045
     atom  212 type  1   force =     0.00000008   -0.00000006   -0.00000007
     atom  213 type  1   force =     0.00000002    0.00000010   -0.00000003
     atom  214 type  2   force =     0.00000038    0.00000011    0.00000015
     atom  215 type  1   force =     0.00000016   -0.00000000   -0.00000009
     atom  216 type  1   force =     0.00000009    0.00000004    0.00000018
     atom  217 type  2   force =    -0.00000063   -0.00000048    0.00000041
     atom  218 type  1   force =    -0.00000022   -0.00000003   -0.00000002
     atom  219 type  1   force =     0.00000002   -0.00000008    0.00000017
     atom  220 type  2   force =     0.00000062    0.00000054   -0.00000035
     atom  221 type  1   force =     0.00000007    0.00000023   -0.00000008
     atom  222 type  1   force =     0.00000017   -0.00000018   -0.00000008
     atom  223 type  2   force =    -0.00000044   -0.00000011    0.00000056
     atom  224 type  1   force =    -0.00000004   -0.00000006    0.00000021
     atom  225 type  1   force =    -0.00000014    0.00000005   -0.00000009
     atom  226 type  2   force =    -0.00000008   -0.00000040    0.00000105
     atom  227 type  1   force =     0.00000008    0.00000001    0.00000027
     atom  228 type  1   force =    -0.00000013   -0.00000016    0.00000018

     Total force =     0.647502     Total SCF correction =     0.000009

     Writing all to output data dir ./s08.save/
 
     init_run     :      7.94s CPU      6.02s WALL (       1 calls)
     electrons    :     66.75s CPU     57.15s WALL (       1 calls)
     forces       :      4.42s CPU      2.81s WALL (       1 calls)

     Called by init_run:
     wfcinit      :      0.61s CPU      1.31s WALL (       1 calls)
                                        1.31s GPU  (       1 calls)
     wfcinit:atom :      0.01s CPU      0.01s WALL (       1 calls)
                                        0.01s GPU  (       1 calls)
     wfcinit:wfcr :      0.40s CPU      1.04s WALL (       1 calls)
                                        1.04s GPU  (       1 calls)
     potinit      :      3.14s CPU      1.35s WALL (       1 calls)
     hinit0       :      2.69s CPU      1.20s WALL (       1 calls)

     Called by electrons:
     c_bands      :     11.72s CPU     22.17s WALL (      20 calls)
     sum_band     :      6.96s CPU      7.86s WALL (      20 calls)
     v_of_rho     :     27.37s CPU     10.78s WALL (      21 calls)
     v_h          :      1.66s CPU      0.81s WALL (      21 calls)
     v_xc         :     26.90s CPU     10.44s WALL (      22 calls)
     newd         :      1.32s CPU      7.95s WALL (      21 calls)
                                        7.95s GPU  (      21 calls)
     PAW_pot      :     16.39s CPU      6.51s WALL (      21 calls)
     mix_rho      :      3.47s CPU      2.33s WALL (      20 calls)

     Called by c_bands:
     init_us_2_gp :      0.21s CPU      0.23s WALL (      41 calls)
     regterg      :     11.25s CPU     21.62s WALL (      20 calls)

     Called by sum_band:
     sum_band:wei :      0.00s CPU      0.00s WALL (      20 calls)
                                        0.00s GPU  (      20 calls)
     sum_band:loo :      4.39s CPU      6.06s WALL (      20 calls)
                                        6.06s GPU  (      20 calls)
     sum_band:buf :      0.00s CPU      0.00s WALL (      20 calls)
                                        0.00s GPU  (      20 calls)
     sum_band:ini :      0.10s CPU      0.16s WALL (      20 calls)
                                        0.16s GPU  (      20 calls)
     sum_band:cal :      0.13s CPU      0.20s WALL (      20 calls)
                                        0.19s GPU  (      20 calls)
     sum_band:bec :      0.12s CPU      0.12s WALL (      20 calls)
                                        0.12s GPU  (      20 calls)
     addusdens    :      0.38s CPU      0.53s WALL (      20 calls)
                                        0.53s GPU  (      20 calls)
     addusd:skk   :      0.06s CPU      0.32s WALL (      40 calls)
                                        0.25s GPU  (      40 calls)

     Called by *egterg:
     rdiaghg      :      2.35s CPU      2.73s WALL (      77 calls)
                                        2.70s GPU  (      77 calls)
     regterg:over :      0.36s CPU      0.46s WALL (      57 calls)
     regterg:upda :      0.18s CPU      0.22s WALL (      57 calls)
     regterg:last :      0.33s CPU      0.40s WALL (      48 calls)
     h_psi        :      7.18s CPU     15.34s WALL (      78 calls)
                                       15.30s GPU  (      78 calls)
     s_psi        :      0.16s CPU      0.70s WALL (      78 calls)
                                        0.66s GPU  (      78 calls)
     g_psi        :      0.00s CPU      0.03s WALL (      57 calls)
                                        0.01s GPU  (      57 calls)

     Called by h_psi:
     h_psi:calbec :      0.45s CPU      0.61s WALL (      78 calls)
                                        0.55s GPU  (      78 calls)
     vloc_psi     :      6.13s CPU     13.99s WALL (      78 calls)
                                       13.94s GPU  (      78 calls)
     add_vuspsi   :      0.11s CPU      0.64s WALL (      78 calls)
                                        0.63s GPU  (      78 calls)

     General routines
     calbec       :      0.61s CPU      0.84s WALL (     102 calls)
     fft          :     12.57s CPU      7.15s WALL (     238 calls)
                                        0.46s GPU  (      25 calls)
     ffts         :      1.06s CPU      0.52s WALL (      41 calls)
     fftw         :      8.95s CPU     19.13s WALL (    4208 calls)
                                       16.62s GPU  (    4208 calls)
     interpolate  :      1.92s CPU      1.03s WALL (      21 calls)
 
     Parallel routines

     PAW routines
     PAW_pot      :     16.39s CPU      6.51s WALL (      21 calls)
 
     PWSCF        :   1m19.75s CPU   1m 6.95s WALL

 
   This run was terminated on:   0:42:55  30Sep2021            

=------------------------------------------------------------------------------=
   JOB DONE.
=------------------------------------------------------------------------------=
