
     Program PWSCF v.6.8 starts on 30Sep2021 at  1:31:16 

     This program is part of the open-source Quantum ESPRESSO suite
     for quantum simulation of materials; please cite
         "P. Giannozzi et al., J. Phys.:Condens. Matter 21 395502 (2009);
         "P. Giannozzi et al., J. Phys.:Condens. Matter 29 465901 (2017);
         "P. Giannozzi et al., J. Chem. Phys. 152 154105 (2020);
          URL http://www.quantum-espresso.org", 
     in publications or presentations arising from this work. More details at
     http://www.quantum-espresso.org/quote

     Parallel version (MPI & OpenMP), running on     128 processor cores
     Number of MPI processes:                32
     Threads/MPI process:                     4

     MPI processes distributed on     4 nodes
     R & G space division:  proc/nbgrp/npool/nimage =      32
     248086 MiB available memory on the printing compute node when the environment starts
 
     Reading input from 011.in

     Current dimensions of program PWSCF are:
     Max number of different atomic species (ntypx) = 10
     Max number of k-points (npk) =  40000
     Max angular momentum in pseudopotentials (lmaxx) =  4
     file O.pbe-n-kjpaw_psl.0.1.UPF: wavefunction(s)  2P renormalized

     gamma-point specific algorithms are used

     Subspace diagonalization in iterative solution of the eigenvalue problem:
     a serial algorithm will be used

 
     Parallelization info
     --------------------
     sticks:   dense  smooth     PW     G-vecs:    dense   smooth      PW
     Min        2441    1220    304               513662   181612   22692
     Max        2444    1222    306               513672   181626   22707
     Sum       78161   39093   9761             16437267  5811843  726287
 
     Using Slab Decomposition
 


     bravais-lattice index     =            1
     lattice parameter (alat)  =      45.2344  a.u.
     unit-cell volume          =   92556.2521 (a.u.)^3
     number of atoms/cell      =          570
     number of atomic types    =            2
     number of electrons       =      1520.00
     number of Kohn-Sham states=          760
     kinetic-energy cutoff     =      60.0000  Ry
     charge density cutoff     =     480.0000  Ry
     scf convergence threshold =      1.0E-10
     mixing beta               =       0.7000
     number of iterations used =            8  plain     mixing
     Exchange-correlation= SLA  PW   PBX  PBC
                           (   1   4   3   4   0   0   0)

     GPU acceleration is ACTIVE.


     GPU used by master process:

        Device Number: 0
        Device name: Tesla V100-SXM2-16GB
        Compute capability : 70
        Ratio of single to double precision performance  : 2
        Memory Clock Rate (KHz): 877000
        Memory Bus Width (bits): 4096
        Peak Memory Bandwidth (GB/s): 898.05

     celldm(1)=  45.234374  celldm(2)=   0.000000  celldm(3)=   0.000000
     celldm(4)=   0.000000  celldm(5)=   0.000000  celldm(6)=   0.000000

     crystal axes: (cart. coord. in units of alat)
               a(1) = (   1.000000   0.000000   0.000000 )  
               a(2) = (   0.000000   1.000000   0.000000 )  
               a(3) = (   0.000000   0.000000   1.000000 )  

     reciprocal axes: (cart. coord. in units 2 pi/alat)
               b(1) = (  1.000000  0.000000  0.000000 )  
               b(2) = (  0.000000  1.000000  0.000000 )  
               b(3) = (  0.000000  0.000000  1.000000 )  


     PseudoPot. # 1 for H  read from file:
     ./H.pbe-rrkjus_psl.1.0.0.UPF
     MD5 check sum: f52b6d4d1c606e5624b1dc7b2218f220
     Pseudo is Ultrasoft, Zval =  1.0
     Generated using "atomic" code by A. Dal Corso  v.5.1
     Using radial grid of  929 points,  2 beta functions with: 
                l(1) =   0
                l(2) =   0
     Q(r) pseudized with 0 coefficients 


     PseudoPot. # 2 for O  read from file:
     ./O.pbe-n-kjpaw_psl.0.1.UPF
     MD5 check sum: 0234752ac141de4415c5fc33072bef88
     Pseudo is Projector augmented-wave + core cor, Zval =  6.0
     Generated using "atomic" code by A. Dal Corso  v.5.0.99 svn rev. 10869
     Shape of augmentation charge: BESSEL
     Using radial grid of 1095 points,  4 beta functions with: 
                l(1) =   0
                l(2) =   0
                l(3) =   1
                l(4) =   1
     Q(r) pseudized with 0 coefficients 


     atomic species   valence    mass     pseudopotential
        H              1.00     1.00000     H ( 1.00)
        O              6.00    16.00000     O ( 1.00)

     No symmetry found


                                    s                        frac. trans.

      isym =  1     identity                                     

 cryst.   s( 1) = (     1          0          0      )
                  (     0          1          0      )
                  (     0          0          1      )

 cart.    s( 1) = (  1.0000000  0.0000000  0.0000000 )
                  (  0.0000000  1.0000000  0.0000000 )
                  (  0.0000000  0.0000000  1.0000000 )


     point group C_1 (1)    
     there are  1 classes
     the character table:

       E    
A      1.00

     the symmetry operations in each class and the name of the first element:

     E        1
          identity                                               

   Cartesian axes

     site n.     atom                  positions (alat units)
         1           O   tau(   1) = (  -0.2056477   0.3374337  -0.1805657  )
         2           H   tau(   2) = (  -0.1965071   0.3531416  -0.1429544  )
         3           H   tau(   3) = (  -0.2147842   0.2968271  -0.1768350  )
         4           O   tau(   4) = (   0.1731466   0.1357376   0.2797134  )
         5           H   tau(   5) = (   0.2146305   0.1406254   0.2790032  )
         6           H   tau(   6) = (   0.1600288   0.1226616   0.2422818  )
         7           O   tau(   7) = (  -0.1493792   0.2191231   0.1612357  )
         8           H   tau(   8) = (  -0.1287709   0.1857021   0.1755232  )
         9           H   tau(   9) = (  -0.1411117   0.2242616   0.1206292  )
        10           O   tau(  10) = (   0.3593437  -0.1876530  -0.1617287  )
        11           H   tau(  11) = (   0.3819029  -0.1525985  -0.1642060  )
        12           H   tau(  12) = (   0.3382884  -0.1881460  -0.1256340  )
        13           O   tau(  13) = (   0.0533321   0.1361553   0.2366420  )
        14           H   tau(  14) = (   0.0809045   0.1505264   0.2645068  )
        15           H   tau(  15) = (   0.0733429   0.1141810   0.2073150  )
        16           O   tau(  16) = (  -0.2021887   0.1850754  -0.2041275  )
        17           H   tau(  17) = (  -0.2182266   0.1478109  -0.2140870  )
        18           H   tau(  18) = (  -0.1635539   0.1882086  -0.2197142  )
        19           O   tau(  19) = (   0.0012036   0.0449158  -0.4404144  )
        20           H   tau(  20) = (   0.0162347   0.0104921  -0.4221331  )
        21           H   tau(  21) = (  -0.0376150   0.0521013  -0.4267619  )
        22           O   tau(  22) = (  -0.3788315   0.2337866   0.0284288  )
        23           H   tau(  23) = (  -0.3549271   0.2079688   0.0509880  )
        24           H   tau(  24) = (  -0.3750925   0.2726804   0.0431758  )
        25           O   tau(  25) = (   0.2036015   0.2374211  -0.2851945  )
        26           H   tau(  26) = (   0.1995492   0.2285646  -0.3258219  )
        27           H   tau(  27) = (   0.1801650   0.2110603  -0.2627940  )
        28           O   tau(  28) = (  -0.1341517  -0.2970401  -0.2450140  )
        29           H   tau(  29) = (  -0.1361862  -0.2558738  -0.2518444  )
        30           H   tau(  30) = (  -0.1725776  -0.3119334  -0.2381585  )
        31           O   tau(  31) = (  -0.2844588   0.0492606   0.1317417  )
        32           H   tau(  32) = (  -0.2803146   0.0856477   0.1518778  )
        33           H   tau(  33) = (  -0.2749421   0.0545244   0.0913857  )
        34           O   tau(  34) = (   0.0080465   0.2029975  -0.3447800  )
        35           H   tau(  35) = (   0.0334048   0.1849083  -0.3169403  )
        36           H   tau(  36) = (  -0.0042524   0.2401784  -0.3303087  )
        37           O   tau(  37) = (   0.1586920   0.1248339  -0.1824790  )
        38           H   tau(  38) = (   0.1965831   0.1256277  -0.1648369  )
        39           H   tau(  39) = (   0.1359657   0.0942537  -0.1653131  )
        40           O   tau(  40) = (   0.0681627  -0.1243535  -0.2917492  )
        41           H   tau(  41) = (   0.0314413  -0.1155095  -0.2738731  )
        42           H   tau(  42) = (   0.0697502  -0.1650854  -0.3008898  )
        43           O   tau(  43) = (  -0.0831136   0.1271316   0.0326900  )
        44           H   tau(  44) = (  -0.0724732   0.1280089  -0.0077161  )
        45           H   tau(  45) = (  -0.1123612   0.0978882   0.0387058  )
        46           O   tau(  46) = (   0.1442374   0.0081109   0.2812591  )
        47           H   tau(  47) = (   0.1507127  -0.0086707   0.2435769  )
        48           H   tau(  48) = (   0.1428170   0.0497201   0.2779588  )
        49           O   tau(  49) = (   0.0516193   0.2037076  -0.0418933  )
        50           H   tau(  50) = (   0.0676614   0.1790596  -0.0122405  )
        51           H   tau(  51) = (   0.0821160   0.2265175  -0.0590634  )
        52           O   tau(  52) = (   0.0926436  -0.1385658   0.3907967  )
        53           H   tau(  53) = (   0.1301588  -0.1556440   0.3840289  )
        54           H   tau(  54) = (   0.0810716  -0.1166625   0.3571667  )
        55           O   tau(  55) = (  -0.3486022  -0.2428604  -0.1268622  )
        56           H   tau(  56) = (  -0.3761954  -0.2499791  -0.1574132  )
        57           H   tau(  57) = (  -0.3563224  -0.2685821  -0.0948573  )
        58           O   tau(  58) = (  -0.1290801   0.1184004   0.2981368  )
        59           H   tau(  59) = (  -0.1257129   0.1092514   0.3387434  )
        60           H   tau(  60) = (  -0.1437937   0.0851882   0.2774993  )
        61           O   tau(  61) = (   0.2423700  -0.1244914   0.2086101  )
        62           H   tau(  62) = (   0.2041029  -0.1077976   0.2073568  )
        63           H   tau(  63) = (   0.2701512  -0.0967644   0.1942808  )
        64           O   tau(  64) = (  -0.2995024  -0.1453336   0.2245687  )
        65           H   tau(  65) = (  -0.3345987  -0.1485420   0.2021348  )
        66           H   tau(  66) = (  -0.2882019  -0.1051907   0.2270752  )
        67           O   tau(  67) = (   0.2262443  -0.3215963   0.0219117  )
        68           H   tau(  68) = (   0.2006772  -0.3542654   0.0268413  )
        69           H   tau(  69) = (   0.2466312  -0.3252601  -0.0143752  )
        70           O   tau(  70) = (   0.0326528   0.0081527  -0.1730376  )
        71           H   tau(  71) = (   0.0679956   0.0138342  -0.1515353  )
        72           H   tau(  72) = (   0.0010574   0.0269102  -0.1531395  )
        73           O   tau(  73) = (  -0.0020633   0.0359757   0.0500689  )
        74           H   tau(  74) = (  -0.0223165   0.0001232   0.0430087  )
        75           H   tau(  75) = (  -0.0297360   0.0663053   0.0576722  )
        76           O   tau(  76) = (  -0.0480173  -0.3054999  -0.3100597  )
        77           H   tau(  77) = (  -0.0825245  -0.3038121  -0.2865731  )
        78           H   tau(  78) = (  -0.0398667  -0.3452500  -0.3199983  )
        79           O   tau(  79) = (  -0.0442574  -0.0610624  -0.0950579  )
        80           H   tau(  80) = (  -0.0033960  -0.0554351  -0.0884321  )
        81           H   tau(  81) = (  -0.0602243  -0.0270439  -0.1133058  )
        82           O   tau(  82) = (   0.0369140   0.0079438   0.1546769  )
        83           H   tau(  83) = (   0.0331959   0.0273280   0.1178719  )
        84           H   tau(  84) = (   0.0100936  -0.0240318   0.1563479  )
        85           O   tau(  85) = (  -0.0749087  -0.0608660   0.0168985  )
        86           H   tau(  86) = (  -0.1124030  -0.0457555   0.0274262  )
        87           H   tau(  87) = (  -0.0697410  -0.0577203  -0.0244559  )
        88           O   tau(  88) = (  -0.0259803   0.2975373   0.1197101  )
        89           H   tau(  89) = (  -0.0137858   0.2855893   0.1578519  )
        90           H   tau(  90) = (  -0.0027192   0.3299139   0.1071772  )
        91           O   tau(  91) = (  -0.3451890   0.2382985  -0.1120232  )
        92           H   tau(  92) = (  -0.3850562   0.2272695  -0.1061537  )
        93           H   tau(  93) = (  -0.3384046   0.2448573  -0.1527217  )
        94           O   tau(  94) = (   0.0608936  -0.3147533  -0.2271128  )
        95           H   tau(  95) = (   0.0402979  -0.2947800  -0.2575051  )
        96           H   tau(  96) = (   0.0339479  -0.3374963  -0.2046998  )
        97           O   tau(  97) = (  -0.0982742   0.3847245  -0.1020387  )
        98           H   tau(  98) = (  -0.0790529   0.3914505  -0.0655638  )
        99           H   tau(  99) = (  -0.1146547   0.3462903  -0.1022726  )
       100           O   tau( 100) = (  -0.1457948  -0.0336613   0.1516272  )
       101           H   tau( 101) = (  -0.1600363  -0.0245916   0.1898525  )
       102           H   tau( 102) = (  -0.1055057  -0.0444521   0.1540084  )
       103           O   tau( 103) = (  -0.0480883   0.1827359   0.3624723  )
       104           H   tau( 104) = (  -0.0192292   0.2103919   0.3502736  )
       105           H   tau( 105) = (  -0.0861424   0.1975248   0.3536157  )
       106           O   tau( 106) = (  -0.1128124   0.0837260   0.4186197  )
       107           H   tau( 107) = (  -0.0783511   0.0602060   0.4166144  )
       108           H   tau( 108) = (  -0.1224460   0.0909116   0.4586414  )
       109           O   tau( 109) = (  -0.3186193  -0.0419539  -0.0084931  )
       110           H   tau( 110) = (  -0.3177587  -0.0618937   0.0282199  )
       111           H   tau( 111) = (  -0.3232648  -0.0697477  -0.0393366  )
       112           O   tau( 112) = (   0.0670765  -0.3791097   0.1656640  )
       113           H   tau( 113) = (   0.0343656  -0.4021912   0.1537996  )
       114           H   tau( 114) = (   0.0688311  -0.3444229   0.1424782  )
       115           O   tau( 115) = (  -0.1304545   0.0696474  -0.1999791  )
       116           H   tau( 116) = (  -0.1712073   0.0689790  -0.2091281  )
       117           H   tau( 117) = (  -0.1089230   0.0828487  -0.2332456  )
       118           O   tau( 118) = (   0.1724782  -0.2653779   0.2696453  )
       119           H   tau( 119) = (   0.1652926  -0.2945085   0.2987216  )
       120           H   tau( 120) = (   0.2025154  -0.2395685   0.2829302  )
       121           O   tau( 121) = (  -0.2527923  -0.1747274  -0.2563521  )
       122           H   tau( 122) = (  -0.2653754  -0.2141100  -0.2623679  )
       123           H   tau( 123) = (  -0.2321757  -0.1720788  -0.2201153  )
       124           O   tau( 124) = (  -0.4341977  -0.0255943  -0.0669424  )
       125           H   tau( 125) = (  -0.3998408  -0.0274951  -0.0432469  )
       126           H   tau( 126) = (  -0.4661190  -0.0113485  -0.0440699  )
       127           O   tau( 127) = (   0.2391950   0.2962004   0.0915528  )
       128           H   tau( 128) = (   0.2060663   0.2837511   0.1138196  )
       129           H   tau( 129) = (   0.2359364   0.3370159   0.0834482  )
       130           O   tau( 130) = (  -0.2262435  -0.2887141  -0.1223670  )
       131           H   tau( 131) = (  -0.2163258  -0.2559782  -0.1463508  )
       132           H   tau( 132) = (  -0.2400213  -0.2751702  -0.0853240  )
       133           O   tau( 133) = (   0.2928358   0.1283432  -0.1573798  )
       134           H   tau( 134) = (   0.2729502   0.0960500  -0.1398964  )
       135           H   tau( 135) = (   0.3060789   0.1175649  -0.1954965  )
       136           O   tau( 136) = (  -0.1256502  -0.1810899   0.1138614  )
       137           H   tau( 137) = (  -0.1548268  -0.1555604   0.0982788  )
       138           H   tau( 138) = (  -0.0886364  -0.1719994   0.0967331  )
       139           O   tau( 139) = (  -0.1108907  -0.1699064  -0.2404061  )
       140           H   tau( 140) = (  -0.1159707  -0.1738209  -0.2816853  )
       141           H   tau( 141) = (  -0.0772064  -0.1464281  -0.2326858  )
       142           O   tau( 142) = (  -0.1647069   0.2246794   0.3243723  )
       143           H   tau( 143) = (  -0.1546806   0.1901721   0.3031082  )
       144           H   tau( 144) = (  -0.1945519   0.2157392   0.3521953  )
       145           O   tau( 145) = (  -0.1324013  -0.3129444   0.2849355  )
       146           H   tau( 146) = (  -0.1632322  -0.3050737   0.2578644  )
       147           H   tau( 147) = (  -0.1075402  -0.2794941   0.2878180  )
       148           O   tau( 148) = (  -0.1530346   0.3147909  -0.2832059  )
       149           H   tau( 149) = (  -0.1468141   0.3444939  -0.3119397  )
       150           H   tau( 150) = (  -0.1803856   0.3284935  -0.2547479  )
       151           O   tau( 151) = (  -0.2409613   0.1513201  -0.3473952  )
       152           H   tau( 152) = (  -0.2369842   0.1864540  -0.3251619  )
       153           H   tau( 153) = (  -0.2797590   0.1364478  -0.3430965  )
       154           O   tau( 154) = (   0.0564653   0.2582258   0.3508585  )
       155           H   tau( 155) = (   0.0926436   0.2589360   0.3716631  )
       156           H   tau( 156) = (   0.0309400   0.2874692   0.3663157  )
       157           O   tau( 157) = (   0.1715173  -0.1739545   0.0241258  )
       158           H   tau( 158) = (   0.2002177  -0.1755588   0.0544137  )
       159           H   tau( 159) = (   0.1373861  -0.1544701   0.0382880  )
       160           O   tau( 160) = (   0.2808877   0.0025128   0.1594811  )
       161           H   tau( 161) = (   0.2492213   0.0054372   0.1324101  )
       162           H   tau( 162) = (   0.3146012   0.0214375   0.1435644  )
       163           O   tau( 163) = (  -0.1167561  -0.1760684  -0.3538037  )
       164           H   tau( 164) = (  -0.0931984  -0.1567594  -0.3823913  )
       165           H   tau( 165) = (  -0.1142578  -0.2174061  -0.3593140  )
       166           O   tau( 166) = (   0.2087818  -0.0027050   0.3668588  )
       167           H   tau( 167) = (   0.1960818  -0.0324289   0.3933033  )
       168           H   tau( 168) = (   0.1837578  -0.0022162   0.3333960  )
       169           O   tau( 169) = (  -0.3569533  -0.0754460  -0.2544053  )
       170           H   tau( 170) = (  -0.3971463  -0.0752454  -0.2657935  )
       171           H   tau( 171) = (  -0.3542044  -0.0711430  -0.2129423  )
       172           O   tau( 172) = (  -0.0351961   0.3034695  -0.2927393  )
       173           H   tau( 173) = (  -0.0150098   0.3217676  -0.2610728  )
       174           H   tau( 174) = (  -0.0743573   0.2947383  -0.2810962  )
       175           O   tau( 175) = (  -0.4039558   0.0303777   0.1426453  )
       176           H   tau( 176) = (  -0.4202360   0.0571563   0.1150311  )
       177           H   tau( 177) = (  -0.3622588   0.0317563   0.1404729  )
       178           O   tau( 178) = (  -0.4095956   0.1302649   0.0816518  )
       179           H   tau( 179) = (  -0.3689305   0.1391214   0.0779755  )
       180           H   tau( 180) = (  -0.4283741   0.1355287   0.0447216  )
       181           O   tau( 181) = (   0.0214567  -0.2228705  -0.3349292  )
       182           H   tau( 182) = (   0.0282663  -0.2161904  -0.3756026  )
       183           H   tau( 183) = (  -0.0036634  -0.2559239  -0.3302628  )
       184           O   tau( 184) = (  -0.0584948   0.1533254   0.2014246  )
       185           H   tau( 185) = (  -0.0173159   0.1560826   0.2078581  )
       186           H   tau( 186) = (  -0.0768847   0.1374922   0.2354305  )
       187           O   tau( 187) = (   0.0889673   0.1687826  -0.2521201  )
       188           H   tau( 188) = (   0.1134900   0.1630593  -0.2187701  )
       189           H   tau( 189) = (   0.0920170   0.1356958  -0.2774700  )
       190           O   tau( 190) = (  -0.3503902   0.1374086  -0.0399758  )
       191           H   tau( 191) = (  -0.3483181   0.1789343  -0.0439236  )
       192           H   tau( 192) = (  -0.3903576   0.1252935  -0.0410578  )
       193           O   tau( 193) = (  -0.0549522   0.0539395  -0.1163429  )
       194           H   tau( 194) = (  -0.0490659   0.0904938  -0.0970255  )
       195           H   tau( 195) = (  -0.0811919   0.0592033  -0.1484188  )
       196           O   tau( 196) = (   0.2907887   0.2738919  -0.2133225  )
       197           H   tau( 197) = (   0.2623391   0.2673330  -0.2431842  )
       198           H   tau( 198) = (   0.3189042   0.2430192  -0.2138196  )
       199           O   tau( 199) = (   0.2947575   0.1264214   0.2956720  )
       200           H   tau( 200) = (   0.3207424   0.0980971   0.2793374  )
       201           H   tau( 201) = (   0.3019848   0.1299307   0.3366546  )
       202           O   tau( 202) = (  -0.0065710  -0.2375381   0.2297907  )
       203           H   tau( 203) = (  -0.0482220  -0.2406087   0.2288298  )
       204           H   tau( 204) = (   0.0074617  -0.2500585   0.2670970  )
       205           O   tau( 205) = (   0.2047295   0.1225362   0.0791870  )
       206           H   tau( 206) = (   0.1793713   0.1535761   0.0674479  )
       207           H   tau( 207) = (   0.2395292   0.1384948   0.0958558  )
       208           O   tau( 208) = (   0.2031838  -0.1895872  -0.0833354  )
       209           H   tau( 209) = (   0.1705982  -0.2050403  -0.1043740  )
       210           H   tau( 210) = (   0.1935334  -0.1867005  -0.0427998  )
       211           O   tau( 211) = (   0.3051598   0.2194155   0.2305009  )
       212           H   tau( 212) = (   0.2963868   0.1830284   0.2490078  )
       213           H   tau( 213) = (   0.3402519   0.2352488   0.2467519  )
       214           O   tau( 214) = (   0.1685512  -0.0645841  -0.0020470  )
       215           H   tau( 215) = (   0.1316627  -0.0551009  -0.0192088  )
       216           H   tau( 216) = (   0.1781598  -0.1042967  -0.0107532  )
       217           O   tau( 217) = (   0.3709575   0.0187638  -0.1155241  )
       218           H   tau( 218) = (   0.3327322   0.0064398  -0.1040815  )
       219           H   tau( 219) = (   0.3908430  -0.0129611  -0.1340895  )
       220           O   tau( 220) = (   0.2312575   0.3101537   0.2167565  )
       221           H   tau( 221) = (   0.2591641   0.2818294   0.2296236  )
       222           H   tau( 222) = (   0.2038104   0.2919393   0.1910640  )
       223           O   tau( 223) = (  -0.0291093  -0.1475436   0.0705811  )
       224           H   tau( 224) = (  -0.0426198  -0.1156055   0.0473117  )
       225           H   tau( 225) = (  -0.0091695  -0.1750491   0.0462673  )
       226           O   tau( 226) = (   0.2260354  -0.3393053  -0.1464845  )
       227           H   tau( 227) = (   0.1961654  -0.3109224  -0.1395079  )
       228           H   tau( 228) = (   0.2562397  -0.3350524  -0.1179388  )
       229           O   tau( 229) = (  -0.2335752   0.2041672  -0.0838158  )
       230           H   tau( 230) = (  -0.2752638   0.2018695  -0.0852571  )
       231           H   tau( 231) = (  -0.2177002   0.1923863  -0.1206250  )
       232           O   tau( 232) = (   0.3208677  -0.1794941  -0.0524836  )
       233           H   tau( 233) = (   0.2825588  -0.1961252  -0.0531896  )
       234           H   tau( 234) = (   0.3276772  -0.1617809  -0.0152692  )
       235           O   tau( 235) = (  -0.2278936   0.2230919   0.0278857  )
       236           H   tau( 236) = (  -0.2283741   0.2108514  -0.0120692  )
       237           H   tau( 237) = (  -0.1884067   0.2290241   0.0401679  )
       238           O   tau( 238) = (   0.2580361  -0.1829866   0.1021222  )
       239           H   tau( 239) = (   0.2464223  -0.1584012   0.1338305  )
       240           H   tau( 240) = (   0.2925851  -0.2039792   0.1127334  )
       241           O   tau( 241) = (   0.2420358   0.3306241  -0.1262439  )
       242           H   tau( 242) = (   0.2673522   0.3188014  -0.0951790  )
       243           H   tau( 243) = (   0.2564068   0.3155011  -0.1624389  )
       244           O   tau( 244) = (   0.3636049   0.2171179  -0.1377783  )
       245           H   tau( 245) = (   0.3442207   0.2508731  -0.1226052  )
       246           H   tau( 246) = (   0.3354059   0.1874149  -0.1460124  )
       247           O   tau( 247) = (   0.1264824   0.0362681  -0.1067761  )
       248           H   tau( 248) = (   0.1660028   0.0287484  -0.1179680  )
       249           H   tau( 249) = (   0.1255216   0.0498037  -0.0672641  )
       250           O   tau( 250) = (   0.1491252  -0.4095856   0.0328989  )
       251           H   tau( 251) = (   0.1489999  -0.4138551  -0.0086393  )
       252           H   tau( 252) = (   0.1608226  -0.4455968   0.0505702  )
       253           O   tau( 253) = (  -0.1788858  -0.0327422   0.3771358  )
       254           H   tau( 254) = (  -0.1814718  -0.0735034   0.3683628  )
       255           H   tau( 255) = (  -0.1389142  -0.0223608   0.3834023  )
       256           O   tau( 256) = (   0.2928776  -0.0121130   0.2671387  )
       257           H   tau( 257) = (   0.2662243   0.0140431   0.2858545  )
       258           H   tau( 258) = (   0.2905381  -0.0070999   0.2256966  )
       259           O   tau( 259) = (   0.3227476   0.1421293   0.1100597  )
       260           H   tau( 260) = (   0.3174003   0.1728349   0.1379246  )
       261           H   tau( 261) = (   0.3371605   0.1581715   0.0742992  )
       262           O   tau( 262) = (  -0.1519067   0.0424510   0.0695367  )
       263           H   tau( 263) = (  -0.1551819   0.0187221   0.1037515  )
       264           H   tau( 264) = (  -0.1900735   0.0527698   0.0560429  )
       265           O   tau( 265) = (   0.0128508  -0.2595835   0.3400802  )
       266           H   tau( 266) = (   0.0479847  -0.2471634   0.3590049  )
       267           H   tau( 267) = (   0.0160676  -0.2999812   0.3298868  )
       268           O   tau( 268) = (  -0.0702715  -0.0764444  -0.4235201  )
       269           H   tau( 269) = (  -0.0916861  -0.0869721  -0.4578143  )
       270           H   tau( 270) = (  -0.0303000  -0.0877031  -0.4280612  )
       271           O   tau( 271) = (   0.3326486  -0.1249008   0.0450975  )
       272           H   tau( 272) = (   0.3593855  -0.1034695   0.0689936  )
       273           H   tau( 273) = (   0.3005644  -0.1380144   0.0684505  )
       274           O   tau( 274) = (  -0.3018085  -0.1260914  -0.0920959  )
       275           H   tau( 275) = (  -0.2604541  -0.1203597  -0.0905502  )
       276           H   tau( 276) = (  -0.3099925  -0.1656619  -0.1027029  )
       277           O   tau( 277) = (  -0.1915566  -0.1171763  -0.0446046  )
       278           H   tau( 278) = (  -0.1971254  -0.1084869  -0.0041233  )
       279           H   tau( 279) = (  -0.1786143  -0.0828320  -0.0645611  )
       280           O   tau( 280) = (   0.0434729  -0.0566174  -0.4048711  )
       281           H   tau( 281) = (   0.0794005  -0.0696349  -0.4217947  )
       282           H   tau( 282) = (   0.0389192  -0.0737457  -0.3670427  )
       283           O   tau( 283) = (  -0.0417174  -0.0731650   0.1622384  )
       284           H   tau( 284) = (  -0.0381664  -0.1048941   0.1352926  )
       285           H   tau( 285) = (  -0.0337799  -0.0867882   0.2009233  )
       286           O   tau( 286) = (   0.1969591   0.0025546   0.0801479  )
       287           H   tau( 287) = (   0.1903167   0.0433283   0.0738814  )
       288           H   tau( 288) = (   0.1814183  -0.0191732   0.0480637  )
       289           O   tau( 289) = (   0.0903877   0.2883465   0.0461420  )
       290           H   tau( 290) = (   0.0976150   0.2807850   0.0057025  )
       291           H   tau( 291) = (   0.0689982   0.3239817   0.0500689  )
       292           O   tau( 292) = (   0.1071818   0.1707043   0.0549150  )
       293           H   tau( 293) = (   0.0791081   0.1542027   0.0810670  )
       294           H   tau( 294) = (   0.0979910   0.2108514   0.0481054  )
       295           O   tau( 295) = (   0.4002427   0.0648431  -0.0197727  )
       296           H   tau( 296) = (   0.3951460   0.0540231  -0.0598070  )
       297           H   tau( 297) = (   0.4367135   0.0846451  -0.0152066  )
       298           O   tau( 298) = (  -0.1280607  -0.2518966   0.0223294  )
       299           H   tau( 299) = (  -0.0983912  -0.2292330   0.0035719  )
       300           H   tau( 300) = (  -0.1203572  -0.2537264   0.0633538  )
       301           O   tau( 301) = (   0.3109667   0.1525734  -0.2895392  )
       302           H   tau( 302) = (   0.3344450   0.1540356  -0.3240715  )
       303           H   tau( 303) = (   0.2752479   0.1732527  -0.2960897  )
       304           O   tau( 304) = (  -0.2171237  -0.0999394  -0.3547479  )
       305           H   tau( 305) = (  -0.1760576  -0.1015938  -0.3472616  )
       306           H   tau( 306) = (  -0.2379367  -0.1010716  -0.3185403  )
       307           O   tau( 307) = (   0.3441371   0.1651481  -0.0122029  )
       308           H   tau( 308) = (   0.3643569   0.1290951  -0.0062915  )
       309           H   tau( 309) = (   0.3447638   0.1749655  -0.0528053  )
       310           O   tau( 310) = (  -0.0956590  -0.3896624  -0.1720266  )
       311           H   tau( 311) = (  -0.0589585  -0.3714020  -0.1639763  )
       312           H   tau( 312) = (  -0.1211468  -0.3621653  -0.1904541  )
       313           O   tau( 313) = (  -0.1982157  -0.0949680   0.0736726  )
       314           H   tau( 314) = (  -0.2377946  -0.1065401   0.0803568  )
       315           H   tau( 315) = (  -0.1874124  -0.0656160   0.1013703  )
       316           O   tau( 316) = (  -0.0264148  -0.2848999   0.1164515  )
       317           H   tau( 317) = (  -0.0222288  -0.2572106   0.1474496  )
       318           H   tau( 318) = (   0.0100518  -0.2891110   0.0965242  )
       319           O   tau( 319) = (   0.1475377  -0.2594331  -0.1647951  )
       320           H   tau( 320) = (   0.1118607  -0.2762564  -0.1785855  )
       321           H   tau( 321) = (   0.1624936  -0.2330346  -0.1935080  )
       322           O   tau( 322) = (  -0.2804691  -0.2951268   0.1230522  )
       323           H   tau( 323) = (  -0.3215395  -0.2993546   0.1294022  )
       324           H   tau( 324) = (  -0.2635999  -0.3326127   0.1155742  )
       325           O   tau( 325) = (   0.1672561  -0.0729018  -0.2732715  )
       326           H   tau( 326) = (   0.1313285  -0.0936270  -0.2783056  )
       327           H   tau( 327) = (   0.1716009  -0.0449200  -0.3039855  )
       328           O   tau( 328) = (  -0.0771605  -0.2127648   0.3926348  )
       329           H   tau( 329) = (  -0.0406605  -0.2246877   0.3761750  )
       330           H   tau( 330) = (  -0.0830843  -0.2323537   0.4290638  )
       331           O   tau( 331) = (  -0.2153148  -0.2989827   0.2126624  )
       332           H   tau( 332) = (  -0.2251615  -0.2965723   0.1721394  )
       333           H   tau( 333) = (  -0.2217400  -0.2618937   0.2307933  )
       334           O   tau( 334) = (   0.3310193  -0.2454673   0.1933617  )
       335           H   tau( 335) = (   0.3290559  -0.2509149   0.2347621  )
       336           H   tau( 336) = (   0.3691611  -0.2320947   0.1828759  )
       337           O   tau( 337) = (  -0.0057647   0.0686866   0.3639763  )
       338           H   tau( 338) = (  -0.0236909   0.1062435   0.3599657  )
       339           H   tau( 339) = (   0.0357442   0.0731566   0.3652713  )
       340           O   tau( 340) = (   0.2419104   0.0264089  -0.1246021  )
       341           H   tau( 341) = (   0.2487200  -0.0023708  -0.1541087  )
       342           H   tau( 342) = (   0.2396127   0.0077767  -0.0872708  )
       343           O   tau( 343) = (  -0.0482596   0.1578372  -0.0747462  )
       344           H   tau( 344) = (  -0.0612562   0.1779734  -0.1089568  )
       345           H   tau( 345) = (  -0.0110661   0.1728349  -0.0630447  )
       346           O   tau( 346) = (  -0.2627100   0.2324915   0.1871788  )
       347           H   tau( 347) = (  -0.2732753   0.2729310   0.1876384  )
       348           H   tau( 348) = (  -0.2212011   0.2289406   0.1902285  )
       349           O   tau( 349) = (   0.1949121  -0.1978255  -0.2483770  )
       350           H   tau( 350) = (   0.1958729  -0.2109976  -0.2880102  )
       351           H   tau( 351) = (   0.1764469  -0.1604107  -0.2465639  )
       352           O   tau( 352) = (   0.0119735   0.3477107  -0.2018089  )
       353           H   tau( 353) = (   0.0504495   0.3431988  -0.1861511  )
       354           H   tau( 354) = (  -0.0072854   0.3793771  -0.1825667  )
       355           O   tau( 355) = (  -0.0949405  -0.3753917   0.1002005  )
       356           H   tau( 356) = (  -0.1242967  -0.3726177   0.0706229  )
       357           H   tau( 357) = (  -0.0739186  -0.3393554   0.1023729  )
       358           O   tau( 358) = (  -0.1641847   0.0039750   0.2695618  )
       359           H   tau( 359) = (  -0.1657096  -0.0106175   0.3086644  )
       360           H   tau( 360) = (  -0.1243259   0.0091135   0.2581568  )
       361           O   tau( 361) = (  -0.1127414  -0.2109517   0.2248611  )
       362           H   tau( 362) = (  -0.1213515  -0.2014308   0.1850900  )
       363           H   tau( 363) = (  -0.1483432  -0.2137005   0.2465430  )
       364           O   tau( 364) = (  -0.0795041  -0.0098362  -0.3221080  )
       365           H   tau( 365) = (  -0.0767970  -0.0321991  -0.3572921  )
       366           H   tau( 366) = (  -0.1015704   0.0249050  -0.3293479  )
       367           O   tau( 367) = (  -0.1628938   0.2990412  -0.0695033  )
       368           H   tau( 368) = (  -0.1518148   0.3016731  -0.0293061  )
       369           H   tau( 369) = (  -0.1865225   0.2650771  -0.0752559  )
       370           O   tau( 370) = (   0.1406864   0.2734741   0.1491206  )
       371           H   tau( 371) = (   0.1266913   0.2794064   0.1102268  )
       372           H   tau( 372) = (   0.1083933   0.2728475   0.1756068  )
       373           O   tau( 373) = (  -0.2959139  -0.2073547   0.0580900  )
       374           H   tau( 374) = (  -0.2904495  -0.2384280   0.0854535  )
       375           H   tau( 375) = (  -0.2775281  -0.2172808   0.0219117  )
       376           O   tau( 376) = (  -0.0028738  -0.3544951  -0.0004387  )
       377           H   tau( 377) = (   0.0242975  -0.3239023   0.0079584  )
       378           H   tau( 378) = (  -0.0400505  -0.3379099  -0.0098049  )
       379           O   tau( 379) = (   0.2585374  -0.0551468  -0.2004219  )
       380           H   tau( 380) = (   0.2784229  -0.0917011  -0.2040815  )
       381           H   tau( 381) = (   0.2457956  -0.0424009  -0.2381084  )
       382           O   tau( 382) = (  -0.0549856   0.4074508   0.0011488  )
       383           H   tau( 383) = (  -0.0683331   0.4032732   0.0405022  )
       384           H   tau( 384) = (  -0.0408819   0.4463446  -0.0047333  )
       385           O   tau( 385) = (  -0.0560467  -0.0283056   0.3984000  )
       386           H   tau( 386) = (  -0.0274466  -0.0587354   0.3972720  )
       387           H   tau( 387) = (  -0.0389059   0.0074007   0.3850733  )
       388           O   tau( 388) = (   0.4163266  -0.0646718   0.0932239  )
       389           H   tau( 389) = (   0.4114806  -0.0235472   0.0987384  )
       390           H   tau( 390) = (   0.4500819  -0.0716527   0.0695785  )
       391           O   tau( 391) = (  -0.0165179   0.2217968  -0.1814346  )
       392           H   tau( 392) = (   0.0222087   0.2062560  -0.1830597  )
       393           H   tau( 393) = (  -0.0146840   0.2634060  -0.1780173  )
       394           O   tau( 394) = (   0.1337515   0.2692129  -0.0680704  )
       395           H   tau( 395) = (   0.1287384   0.2971613  -0.0987258  )
       396           H   tau( 396) = (   0.1694285   0.2770251  -0.0478172  )
       397           O   tau( 397) = (   0.0109291   0.0792142  -0.2982496  )
       398           H   tau( 398) = (  -0.0181639   0.0553181  -0.3164056  )
       399           H   tau( 399) = (   0.0013874   0.0844780  -0.2579187  )
       400           O   tau( 400) = (  -0.3230183  -0.0974036   0.0895476  )
       401           H   tau( 401) = (  -0.3570368  -0.0911748   0.1129841  )
       402           H   tau( 402) = (  -0.3173702  -0.1383987   0.0838242  )
       403           O   tau( 403) = (   0.0959439  -0.2349647  -0.0537369  )
       404           H   tau( 404) = (   0.1112758  -0.2690208  -0.0724485  )
       405           H   tau( 405) = (   0.1074742  -0.2347516  -0.0135857  )
       406           O   tau( 406) = (   0.0854581  -0.3031646   0.0679910  )
       407           H   tau( 407) = (   0.1159130  -0.2839182   0.0891716  )
       408           H   tau( 408) = (   0.1011242  -0.3365188   0.0483143  )
       409           O   tau( 409) = (   0.1982959   0.4015603   0.0512804  )
       410           H   tau( 410) = (   0.2208969   0.4186051   0.0205331  )
       411           H   tau( 411) = (   0.1584831   0.3982600   0.0391235  )
       412           O   tau( 412) = (  -0.2788023  -0.0006914  -0.2920541  )
       413           H   tau( 413) = (  -0.3040477  -0.0285103  -0.2737854  )
       414           H   tau( 414) = (  -0.2478961  -0.0207524  -0.3117391  )
       415           O   tau( 415) = (   0.1374696  -0.3875026  -0.0818440  )
       416           H   tau( 416) = (   0.1689272  -0.3777395  -0.1075239  )
       417           H   tau( 417) = (   0.1258558  -0.4270899  -0.0884530  )
       418           O   tau( 418) = (  -0.0939754   0.3905732   0.1001588  )
       419           H   tau( 419) = (  -0.0745327   0.3589485   0.1192923  )
       420           H   tau( 420) = (  -0.1002335   0.4216130   0.1274387  )
       421           O   tau( 421) = (   0.0556298   0.2905189   0.2265321  )
       422           H   tau( 422) = (   0.0560893   0.2698814   0.2628358  )
       423           H   tau( 423) = (   0.0420942   0.3295380   0.2328404  )
       424           O   tau( 424) = (  -0.0356431   0.3604107   0.2422818  )
       425           H   tau( 425) = (  -0.0491954   0.3988867   0.2332164  )
       426           H   tau( 426) = (  -0.0683331   0.3347182   0.2462088  )
       427           O   tau( 427) = (  -0.0822614  -0.2647512  -0.0972929  )
       428           H   tau( 428) = (  -0.1228888  -0.2720287  -0.1037724  )
       429           H   tau( 429) = (  -0.0681702  -0.2379099  -0.1260350  )
       430           O   tau( 430) = (  -0.0456110   0.0319652   0.2574884  )
       431           H   tau( 431) = (  -0.0194381   0.0503050   0.2843506  )
       432           H   tau( 432) = (  -0.0236533   0.0107428   0.2289552  )
       433           O   tau( 433) = (  -0.1357559   0.0845198  -0.3572545  )
       434           H   tau( 434) = (  -0.1308347   0.0863162  -0.3987008  )
       435           H   tau( 435) = (  -0.1584739   0.1171889  -0.3445085  )
       436           O   tau( 436) = (  -0.2264106  -0.2223691  -0.0275724  )
       437           H   tau( 437) = (  -0.1908965  -0.2369533  -0.0111041  )
       438           H   tau( 438) = (  -0.2255834  -0.1806012  -0.0276935  )
       439           O   tau( 439) = (   0.1095630   0.0935852   0.3888332  )
       440           H   tau( 440) = (   0.1374696   0.0693550   0.4083427  )
       441           H   tau( 441) = (   0.1294903   0.1196537   0.3629319  )
       442           O   tau( 442) = (   0.3009822  -0.2429774  -0.2374316  )
       443           H   tau( 443) = (   0.2624226  -0.2279505  -0.2318837  )
       444           H   tau( 444) = (   0.3256720  -0.2297301  -0.2064503  )
       445           O   tau( 445) = (   0.1500025  -0.0995927  -0.1508836  )
       446           H   tau( 446) = (   0.1680081  -0.0768162  -0.1809333  )
       447           H   tau( 447) = (   0.1787446  -0.1238271  -0.1326816  )
       448           O   tau( 448) = (  -0.0919242   0.1579626  -0.2638969  )
       449           H   tau( 449) = (  -0.0829340   0.1965221  -0.2505577  )
       450           H   tau( 450) = (  -0.0726653   0.1509441  -0.3003008  )
       451           O   tau( 451) = (  -0.2150056  -0.1936061   0.2797552  )
       452           H   tau( 452) = (  -0.2143915  -0.1752037   0.3172703  )
       453           H   tau( 453) = (  -0.2447462  -0.1761562   0.2561516  )
       454           O   tau( 454) = (   0.0366215   0.3854347   0.0812341  )
       455           H   tau( 455) = (   0.0278485   0.4177696   0.1061328  )
       456           H   tau( 456) = (   0.0142294   0.3884426   0.0461002  )
       457           O   tau( 457) = (   0.3680749   0.0406964   0.0966078  )
       458           H   tau( 458) = (   0.3655684   0.0411142   0.0549150  )
       459           H   tau( 459) = (   0.3557092   0.0776685   0.1116472  )
       460           O   tau( 460) = (   0.1888127   0.0188892  -0.3442453  )
       461           H   tau( 461) = (   0.1566867   0.0446652  -0.3512888  )
       462           H   tau( 462) = (   0.2245733   0.0403622  -0.3461545  )
       463           O   tau( 463) = (  -0.2670924  -0.0449409   0.2236078  )
       464           H   tau( 464) = (  -0.2787313  -0.0233759   0.1897690  )
       465           H   tau( 465) = (  -0.2414709  -0.0215587   0.2468772  )
       466           O   tau( 466) = (  -0.3075945   0.0618352  -0.1306596  )
       467           H   tau( 467) = (  -0.3271542   0.0742010  -0.0958892  )
       468           H   tau( 468) = (  -0.3136939   0.0208527  -0.1362117  )
       469           O   tau( 469) = (  -0.1768430   0.0009504  -0.0747003  )
       470           H   tau( 470) = (  -0.1388223   0.0182207  -0.0737185  )
       471           H   tau( 471) = (  -0.2038890   0.0277457  -0.0918661  )
       472           O   tau( 472) = (  -0.3913352   0.0999352  -0.1981117  )
       473           H   tau( 473) = (  -0.4108071   0.0638823  -0.2061704  )
       474           H   tau( 474) = (  -0.3554660   0.0922484  -0.1781259  )
       475           O   tau( 475) = (  -0.3557376  -0.0502883  -0.1490705  )
       476           H   tau( 476) = (  -0.3373518  -0.0823140  -0.1295400  )
       477           H   tau( 477) = (  -0.3937498  -0.0440803  -0.1328947  )
       478           O   tau( 478) = (   0.1559765  -0.0635397  -0.4272465  )
       479           H   tau( 479) = (   0.1714338  -0.0318440  -0.4048419  )
       480           H   tau( 480) = (   0.1849275  -0.0934348  -0.4308811  )
       481           O   tau( 481) = (   0.1633292  -0.2583887   0.1570999  )
       482           H   tau( 482) = (   0.1671726  -0.2623407   0.1985002  )
       483           H   tau( 483) = (   0.2010532  -0.2606530   0.1393032  )
       484           O   tau( 484) = (   0.2444170   0.2473639  -0.0071855  )
       485           H   tau( 485) = (   0.2439992   0.2708840   0.0273426  )
       486           H   tau( 486) = (   0.2833943   0.2342044  -0.0145549  )
       487           O   tau( 487) = (  -0.0149430  -0.2244997  -0.0113423  )
       488           H   tau( 488) = (  -0.0396203  -0.2399403  -0.0413043  )
       489           H   tau( 489) = (   0.0247153  -0.2246376  -0.0245144  )
       490           O   tau( 490) = (  -0.2564854   0.0630050   0.0233321  )
       491           H   tau( 491) = (  -0.2748085   0.0919142  -0.0006058  )
       492           H   tau( 492) = (  -0.2710737   0.0251974   0.0130969  )
       493           O   tau( 493) = (   0.2595400  -0.1942035   0.3043614  )
       494           H   tau( 494) = (   0.2778799  -0.1691920   0.3323934  )
       495           H   tau( 495) = (   0.2492631  -0.1720119   0.2705226  )
       496           O   tau( 496) = (  -0.3069721   0.1830701   0.0988219  )
       497           H   tau( 497) = (  -0.2936287   0.1973576   0.1357522  )
       498           H   tau( 498) = (  -0.2796336   0.1937231   0.0690772  )
       499           O   tau( 499) = (   0.1042992   0.0658875  -0.0028826  )
       500           H   tau( 500) = (   0.1174587   0.1001024   0.0171492  )
       501           H   tau( 501) = (   0.0707110   0.0503885   0.0165643  )
       502           O   tau( 502) = (  -0.0306885  -0.1668442  -0.1433513  )
       503           H   tau( 503) = (  -0.0345110  -0.1266763  -0.1325271  )
       504           H   tau( 504) = (   0.0097594  -0.1773259  -0.1439362  )
       505           O   tau( 505) = (  -0.1682370  -0.3735911  -0.0011906  )
       506           H   tau( 506) = (  -0.1749547  -0.3382650  -0.0224464  )
       507           H   tau( 507) = (  -0.1932987  -0.3747191   0.0322304  )
       508           O   tau( 508) = (   0.0584706  -0.3563375   0.2780006  )
       509           H   tau( 509) = (   0.0689147  -0.3589443   0.2376447  )
       510           H   tau( 510) = (   0.0447262  -0.3934892   0.2912437  )
       511           O   tau( 511) = (   0.0222087  -0.3793980  -0.1161257  )
       512           H   tau( 512) = (  -0.0055934  -0.3863914  -0.0857376  )
       513           H   tau( 513) = (   0.0587212  -0.3681226  -0.0992647  )
       514           O   tau( 514) = (   0.1537624  -0.0390755   0.1829177  )
       515           H   tau( 515) = (   0.1804157  -0.0329887   0.1512930  )
       516           H   tau( 516) = (   0.1145344  -0.0364018   0.1687555  )
       517           O   tau( 517) = (  -0.0159080  -0.0725550  -0.2413377  )
       518           H   tau( 518) = (  -0.0373936  -0.0505222  -0.2695868  )
       519           H   tau( 519) = (   0.0064590  -0.0465618  -0.2174959  )
       520           O   tau( 520) = (  -0.1149555   0.2471133   0.0522413  )
       521           H   tau( 521) = (  -0.0860964   0.2685863   0.0734637  )
       522           H   tau( 522) = (  -0.0992518   0.2100577   0.0409617  )
       523           O   tau( 523) = (   0.1365923   0.0838514   0.1880561  )
       524           H   tau( 524) = (   0.1553081   0.0936688   0.1520450  )
       525           H   tau( 525) = (   0.1175841   0.0468375   0.1842545  )
       526           O   tau( 526) = (   0.0833275  -0.1676923   0.1893094  )
       527           H   tau( 527) = (   0.1096048  -0.1999687   0.1856749  )
       528           H   tau( 528) = (   0.0454364  -0.1817124   0.1998788  )
       529           O   tau( 529) = (   0.1297410   0.3275327  -0.1796173  )
       530           H   tau( 530) = (   0.1257722   0.3365564  -0.2202072  )
       531           H   tau( 531) = (   0.1699298   0.3304570  -0.1685884  )
       532           O   tau( 532) = (   0.2706108  -0.0264006  -0.0266533  )
       533           H   tau( 533) = (   0.2342654  -0.0435873  -0.0153361  )
       534           H   tau( 534) = (   0.2998124  -0.0356707   0.0017337  )
       535           O   tau( 535) = (   0.0785650  -0.0939069   0.2862723  )
       536           H   tau( 536) = (   0.0924765  -0.1172933   0.2546058  )
       537           H   tau( 537) = (   0.0951084  -0.0556398   0.2836822  )
       538           O   tau( 538) = (  -0.1967327  -0.1726971  -0.1613318  )
       539           H   tau( 539) = (  -0.1624928  -0.1734908  -0.1852530  )
       540           H   tau( 540) = (  -0.1858875  -0.1648974  -0.1217488  )
       541           O   tau( 541) = (   0.0824084  -0.1055751   0.0867485  )
       542           H   tau( 542) = (   0.0416347  -0.1076346   0.0778920  )
       543           H   tau( 543) = (   0.0888837  -0.1186636   0.1258930  )
       544           O   tau( 544) = (   0.0752647  -0.0692547  -0.0716088  )
       545           H   tau( 545) = (   0.0852492  -0.0309166  -0.0848686  )
       546           H   tau( 546) = (   0.0986176  -0.0974621  -0.0917325  )
       547           O   tau( 547) = (   0.0050679   0.1377846   0.0949785  )
       548           H   tau( 548) = (  -0.0093032   0.1307662   0.1335798  )
       549           H   tau( 549) = (  -0.0270247   0.1453461   0.0693278  )
       550           O   tau( 550) = (  -0.3062034   0.1309751   0.2278690  )
       551           H   tau( 551) = (  -0.3035589   0.1226616   0.2687262  )
       552           H   tau( 552) = (  -0.2805360   0.1625580   0.2183858  )
       553           O   tau( 553) = (   0.1009989   0.4184380  -0.0332581  )
       554           H   tau( 554) = (   0.0810716   0.4183962  -0.0699712  )
       555           H   tau( 555) = (   0.0770193   0.4368196  -0.0044199  )
       556           O   tau( 556) = (  -0.2401049   0.0835171  -0.2223086  )
       557           H   tau( 557) = (  -0.2605585   0.0582842  -0.2486026  )
       558           H   tau( 558) = (  -0.2619205   0.0873188  -0.1868864  )
       559           O   tau( 559) = (  -0.1337298   0.3037620   0.2446631  )
       560           H   tau( 560) = (  -0.1426365   0.2772758   0.2136233  )
       561           H   tau( 561) = (  -0.1460455   0.2873021   0.2810503  )
       562           O   tau( 562) = (   0.0994114   0.0937941  -0.3680704  )
       563           H   tau( 563) = (   0.0987012   0.1179408  -0.4021682  )
       564           H   tau( 564) = (   0.0603923   0.0879454  -0.3543301  )
       565           O   tau( 565) = (  -0.0481635  -0.1131533   0.2719848  )
       566           H   tau( 566) = (  -0.0231102  -0.1065610   0.3047792  )
       567           H   tau( 567) = (  -0.0711656  -0.1473764   0.2787108  )
       568           O   tau( 568) = (   0.3085437   0.0362263  -0.3188704  )
       569           H   tau( 569) = (   0.3428838   0.0189727  -0.3025066  )
       570           H   tau( 570) = (   0.3098387   0.0776267  -0.3134562  )

   Crystallographic axes

     site n.     atom                  positions (cryst. coord.)
         1           O   tau(   1) = ( -0.2056477  0.3374337 -0.1805657  )
         2           H   tau(   2) = ( -0.1965071  0.3531416 -0.1429544  )
         3           H   tau(   3) = ( -0.2147842  0.2968271 -0.1768350  )
         4           O   tau(   4) = (  0.1731466  0.1357376  0.2797134  )
         5           H   tau(   5) = (  0.2146305  0.1406254  0.2790032  )
         6           H   tau(   6) = (  0.1600288  0.1226616  0.2422818  )
         7           O   tau(   7) = ( -0.1493792  0.2191231  0.1612357  )
         8           H   tau(   8) = ( -0.1287709  0.1857021  0.1755232  )
         9           H   tau(   9) = ( -0.1411117  0.2242616  0.1206292  )
        10           O   tau(  10) = (  0.3593437 -0.1876530 -0.1617287  )
        11           H   tau(  11) = (  0.3819029 -0.1525985 -0.1642060  )
        12           H   tau(  12) = (  0.3382884 -0.1881460 -0.1256340  )
        13           O   tau(  13) = (  0.0533321  0.1361553  0.2366420  )
        14           H   tau(  14) = (  0.0809045  0.1505264  0.2645068  )
        15           H   tau(  15) = (  0.0733429  0.1141810  0.2073150  )
        16           O   tau(  16) = ( -0.2021887  0.1850754 -0.2041275  )
        17           H   tau(  17) = ( -0.2182266  0.1478109 -0.2140870  )
        18           H   tau(  18) = ( -0.1635539  0.1882086 -0.2197142  )
        19           O   tau(  19) = (  0.0012036  0.0449158 -0.4404144  )
        20           H   tau(  20) = (  0.0162347  0.0104921 -0.4221331  )
        21           H   tau(  21) = ( -0.0376150  0.0521013 -0.4267619  )
        22           O   tau(  22) = ( -0.3788315  0.2337866  0.0284288  )
        23           H   tau(  23) = ( -0.3549271  0.2079688  0.0509880  )
        24           H   tau(  24) = ( -0.3750925  0.2726804  0.0431758  )
        25           O   tau(  25) = (  0.2036015  0.2374211 -0.2851945  )
        26           H   tau(  26) = (  0.1995492  0.2285646 -0.3258219  )
        27           H   tau(  27) = (  0.1801650  0.2110603 -0.2627940  )
        28           O   tau(  28) = ( -0.1341517 -0.2970401 -0.2450140  )
        29           H   tau(  29) = ( -0.1361862 -0.2558738 -0.2518444  )
        30           H   tau(  30) = ( -0.1725776 -0.3119334 -0.2381585  )
        31           O   tau(  31) = ( -0.2844588  0.0492606  0.1317417  )
        32           H   tau(  32) = ( -0.2803146  0.0856477  0.1518778  )
        33           H   tau(  33) = ( -0.2749421  0.0545244  0.0913857  )
        34           O   tau(  34) = (  0.0080465  0.2029975 -0.3447800  )
        35           H   tau(  35) = (  0.0334048  0.1849083 -0.3169403  )
        36           H   tau(  36) = ( -0.0042524  0.2401784 -0.3303087  )
        37           O   tau(  37) = (  0.1586920  0.1248339 -0.1824790  )
        38           H   tau(  38) = (  0.1965831  0.1256277 -0.1648369  )
        39           H   tau(  39) = (  0.1359657  0.0942537 -0.1653131  )
        40           O   tau(  40) = (  0.0681627 -0.1243535 -0.2917492  )
        41           H   tau(  41) = (  0.0314413 -0.1155095 -0.2738731  )
        42           H   tau(  42) = (  0.0697502 -0.1650854 -0.3008898  )
        43           O   tau(  43) = ( -0.0831136  0.1271316  0.0326900  )
        44           H   tau(  44) = ( -0.0724732  0.1280089 -0.0077161  )
        45           H   tau(  45) = ( -0.1123612  0.0978882  0.0387058  )
        46           O   tau(  46) = (  0.1442374  0.0081109  0.2812591  )
        47           H   tau(  47) = (  0.1507127 -0.0086707  0.2435769  )
        48           H   tau(  48) = (  0.1428170  0.0497201  0.2779588  )
        49           O   tau(  49) = (  0.0516193  0.2037076 -0.0418933  )
        50           H   tau(  50) = (  0.0676614  0.1790596 -0.0122405  )
        51           H   tau(  51) = (  0.0821160  0.2265175 -0.0590634  )
        52           O   tau(  52) = (  0.0926436 -0.1385658  0.3907967  )
        53           H   tau(  53) = (  0.1301588 -0.1556440  0.3840289  )
        54           H   tau(  54) = (  0.0810716 -0.1166625  0.3571667  )
        55           O   tau(  55) = ( -0.3486022 -0.2428604 -0.1268622  )
        56           H   tau(  56) = ( -0.3761954 -0.2499791 -0.1574132  )
        57           H   tau(  57) = ( -0.3563224 -0.2685821 -0.0948573  )
        58           O   tau(  58) = ( -0.1290801  0.1184004  0.2981368  )
        59           H   tau(  59) = ( -0.1257129  0.1092514  0.3387434  )
        60           H   tau(  60) = ( -0.1437937  0.0851882  0.2774993  )
        61           O   tau(  61) = (  0.2423700 -0.1244914  0.2086101  )
        62           H   tau(  62) = (  0.2041029 -0.1077976  0.2073568  )
        63           H   tau(  63) = (  0.2701512 -0.0967644  0.1942808  )
        64           O   tau(  64) = ( -0.2995024 -0.1453336  0.2245687  )
        65           H   tau(  65) = ( -0.3345987 -0.1485420  0.2021348  )
        66           H   tau(  66) = ( -0.2882019 -0.1051907  0.2270752  )
        67           O   tau(  67) = (  0.2262443 -0.3215963  0.0219117  )
        68           H   tau(  68) = (  0.2006772 -0.3542654  0.0268413  )
        69           H   tau(  69) = (  0.2466312 -0.3252601 -0.0143752  )
        70           O   tau(  70) = (  0.0326528  0.0081527 -0.1730376  )
        71           H   tau(  71) = (  0.0679956  0.0138342 -0.1515353  )
        72           H   tau(  72) = (  0.0010574  0.0269102 -0.1531395  )
        73           O   tau(  73) = ( -0.0020633  0.0359757  0.0500689  )
        74           H   tau(  74) = ( -0.0223165  0.0001232  0.0430087  )
        75           H   tau(  75) = ( -0.0297360  0.0663053  0.0576722  )
        76           O   tau(  76) = ( -0.0480173 -0.3054999 -0.3100597  )
        77           H   tau(  77) = ( -0.0825245 -0.3038121 -0.2865731  )
        78           H   tau(  78) = ( -0.0398667 -0.3452500 -0.3199983  )
        79           O   tau(  79) = ( -0.0442574 -0.0610624 -0.0950579  )
        80           H   tau(  80) = ( -0.0033960 -0.0554351 -0.0884321  )
        81           H   tau(  81) = ( -0.0602243 -0.0270439 -0.1133058  )
        82           O   tau(  82) = (  0.0369140  0.0079438  0.1546769  )
        83           H   tau(  83) = (  0.0331959  0.0273280  0.1178719  )
        84           H   tau(  84) = (  0.0100936 -0.0240318  0.1563479  )
        85           O   tau(  85) = ( -0.0749087 -0.0608660  0.0168985  )
        86           H   tau(  86) = ( -0.1124030 -0.0457555  0.0274262  )
        87           H   tau(  87) = ( -0.0697410 -0.0577203 -0.0244559  )
        88           O   tau(  88) = ( -0.0259803  0.2975373  0.1197101  )
        89           H   tau(  89) = ( -0.0137858  0.2855893  0.1578519  )
        90           H   tau(  90) = ( -0.0027192  0.3299139  0.1071772  )
        91           O   tau(  91) = ( -0.3451890  0.2382985 -0.1120232  )
        92           H   tau(  92) = ( -0.3850562  0.2272695 -0.1061537  )
        93           H   tau(  93) = ( -0.3384046  0.2448573 -0.1527217  )
        94           O   tau(  94) = (  0.0608936 -0.3147533 -0.2271128  )
        95           H   tau(  95) = (  0.0402979 -0.2947800 -0.2575051  )
        96           H   tau(  96) = (  0.0339479 -0.3374963 -0.2046998  )
        97           O   tau(  97) = ( -0.0982742  0.3847245 -0.1020387  )
        98           H   tau(  98) = ( -0.0790529  0.3914505 -0.0655638  )
        99           H   tau(  99) = ( -0.1146547  0.3462903 -0.1022726  )
       100           O   tau( 100) = ( -0.1457948 -0.0336613  0.1516272  )
       101           H   tau( 101) = ( -0.1600363 -0.0245916  0.1898525  )
       102           H   tau( 102) = ( -0.1055057 -0.0444521  0.1540084  )
       103           O   tau( 103) = ( -0.0480883  0.1827359  0.3624723  )
       104           H   tau( 104) = ( -0.0192292  0.2103919  0.3502736  )
       105           H   tau( 105) = ( -0.0861424  0.1975248  0.3536157  )
       106           O   tau( 106) = ( -0.1128124  0.0837260  0.4186197  )
       107           H   tau( 107) = ( -0.0783511  0.0602060  0.4166144  )
       108           H   tau( 108) = ( -0.1224460  0.0909116  0.4586414  )
       109           O   tau( 109) = ( -0.3186193 -0.0419539 -0.0084931  )
       110           H   tau( 110) = ( -0.3177587 -0.0618937  0.0282199  )
       111           H   tau( 111) = ( -0.3232648 -0.0697477 -0.0393366  )
       112           O   tau( 112) = (  0.0670765 -0.3791097  0.1656640  )
       113           H   tau( 113) = (  0.0343656 -0.4021912  0.1537996  )
       114           H   tau( 114) = (  0.0688311 -0.3444229  0.1424782  )
       115           O   tau( 115) = ( -0.1304545  0.0696474 -0.1999791  )
       116           H   tau( 116) = ( -0.1712073  0.0689790 -0.2091281  )
       117           H   tau( 117) = ( -0.1089230  0.0828487 -0.2332456  )
       118           O   tau( 118) = (  0.1724782 -0.2653779  0.2696453  )
       119           H   tau( 119) = (  0.1652926 -0.2945085  0.2987216  )
       120           H   tau( 120) = (  0.2025154 -0.2395685  0.2829302  )
       121           O   tau( 121) = ( -0.2527923 -0.1747274 -0.2563521  )
       122           H   tau( 122) = ( -0.2653754 -0.2141100 -0.2623679  )
       123           H   tau( 123) = ( -0.2321757 -0.1720788 -0.2201153  )
       124           O   tau( 124) = ( -0.4341977 -0.0255943 -0.0669424  )
       125           H   tau( 125) = ( -0.3998408 -0.0274951 -0.0432469  )
       126           H   tau( 126) = ( -0.4661190 -0.0113485 -0.0440699  )
       127           O   tau( 127) = (  0.2391950  0.2962004  0.0915528  )
       128           H   tau( 128) = (  0.2060663  0.2837511  0.1138196  )
       129           H   tau( 129) = (  0.2359364  0.3370159  0.0834482  )
       130           O   tau( 130) = ( -0.2262435 -0.2887141 -0.1223670  )
       131           H   tau( 131) = ( -0.2163258 -0.2559782 -0.1463508  )
       132           H   tau( 132) = ( -0.2400213 -0.2751702 -0.0853240  )
       133           O   tau( 133) = (  0.2928358  0.1283432 -0.1573798  )
       134           H   tau( 134) = (  0.2729502  0.0960500 -0.1398964  )
       135           H   tau( 135) = (  0.3060789  0.1175649 -0.1954965  )
       136           O   tau( 136) = ( -0.1256502 -0.1810899  0.1138614  )
       137           H   tau( 137) = ( -0.1548268 -0.1555604  0.0982788  )
       138           H   tau( 138) = ( -0.0886364 -0.1719994  0.0967331  )
       139           O   tau( 139) = ( -0.1108907 -0.1699064 -0.2404061  )
       140           H   tau( 140) = ( -0.1159707 -0.1738209 -0.2816853  )
       141           H   tau( 141) = ( -0.0772064 -0.1464281 -0.2326858  )
       142           O   tau( 142) = ( -0.1647069  0.2246794  0.3243723  )
       143           H   tau( 143) = ( -0.1546806  0.1901721  0.3031082  )
       144           H   tau( 144) = ( -0.1945519  0.2157392  0.3521953  )
       145           O   tau( 145) = ( -0.1324013 -0.3129444  0.2849355  )
       146           H   tau( 146) = ( -0.1632322 -0.3050737  0.2578644  )
       147           H   tau( 147) = ( -0.1075402 -0.2794941  0.2878180  )
       148           O   tau( 148) = ( -0.1530346  0.3147909 -0.2832059  )
       149           H   tau( 149) = ( -0.1468141  0.3444939 -0.3119397  )
       150           H   tau( 150) = ( -0.1803856  0.3284935 -0.2547479  )
       151           O   tau( 151) = ( -0.2409613  0.1513201 -0.3473952  )
       152           H   tau( 152) = ( -0.2369842  0.1864540 -0.3251619  )
       153           H   tau( 153) = ( -0.2797590  0.1364478 -0.3430965  )
       154           O   tau( 154) = (  0.0564653  0.2582258  0.3508585  )
       155           H   tau( 155) = (  0.0926436  0.2589360  0.3716631  )
       156           H   tau( 156) = (  0.0309400  0.2874692  0.3663157  )
       157           O   tau( 157) = (  0.1715173 -0.1739545  0.0241258  )
       158           H   tau( 158) = (  0.2002177 -0.1755588  0.0544137  )
       159           H   tau( 159) = (  0.1373861 -0.1544701  0.0382880  )
       160           O   tau( 160) = (  0.2808877  0.0025128  0.1594811  )
       161           H   tau( 161) = (  0.2492213  0.0054372  0.1324101  )
       162           H   tau( 162) = (  0.3146012  0.0214375  0.1435644  )
       163           O   tau( 163) = ( -0.1167561 -0.1760684 -0.3538037  )
       164           H   tau( 164) = ( -0.0931984 -0.1567594 -0.3823913  )
       165           H   tau( 165) = ( -0.1142578 -0.2174061 -0.3593140  )
       166           O   tau( 166) = (  0.2087818 -0.0027050  0.3668588  )
       167           H   tau( 167) = (  0.1960818 -0.0324289  0.3933033  )
       168           H   tau( 168) = (  0.1837578 -0.0022162  0.3333960  )
       169           O   tau( 169) = ( -0.3569533 -0.0754460 -0.2544053  )
       170           H   tau( 170) = ( -0.3971463 -0.0752454 -0.2657935  )
       171           H   tau( 171) = ( -0.3542044 -0.0711430 -0.2129423  )
       172           O   tau( 172) = ( -0.0351961  0.3034695 -0.2927393  )
       173           H   tau( 173) = ( -0.0150098  0.3217676 -0.2610728  )
       174           H   tau( 174) = ( -0.0743573  0.2947383 -0.2810962  )
       175           O   tau( 175) = ( -0.4039558  0.0303777  0.1426453  )
       176           H   tau( 176) = ( -0.4202360  0.0571563  0.1150311  )
       177           H   tau( 177) = ( -0.3622588  0.0317563  0.1404729  )
       178           O   tau( 178) = ( -0.4095956  0.1302649  0.0816518  )
       179           H   tau( 179) = ( -0.3689305  0.1391214  0.0779755  )
       180           H   tau( 180) = ( -0.4283741  0.1355287  0.0447216  )
       181           O   tau( 181) = (  0.0214567 -0.2228705 -0.3349292  )
       182           H   tau( 182) = (  0.0282663 -0.2161904 -0.3756026  )
       183           H   tau( 183) = ( -0.0036634 -0.2559239 -0.3302628  )
       184           O   tau( 184) = ( -0.0584948  0.1533254  0.2014246  )
       185           H   tau( 185) = ( -0.0173159  0.1560826  0.2078581  )
       186           H   tau( 186) = ( -0.0768847  0.1374922  0.2354305  )
       187           O   tau( 187) = (  0.0889673  0.1687826 -0.2521201  )
       188           H   tau( 188) = (  0.1134900  0.1630593 -0.2187701  )
       189           H   tau( 189) = (  0.0920170  0.1356958 -0.2774700  )
       190           O   tau( 190) = ( -0.3503902  0.1374086 -0.0399758  )
       191           H   tau( 191) = ( -0.3483181  0.1789343 -0.0439236  )
       192           H   tau( 192) = ( -0.3903576  0.1252935 -0.0410578  )
       193           O   tau( 193) = ( -0.0549522  0.0539395 -0.1163429  )
       194           H   tau( 194) = ( -0.0490659  0.0904938 -0.0970255  )
       195           H   tau( 195) = ( -0.0811919  0.0592033 -0.1484188  )
       196           O   tau( 196) = (  0.2907887  0.2738919 -0.2133225  )
       197           H   tau( 197) = (  0.2623391  0.2673330 -0.2431842  )
       198           H   tau( 198) = (  0.3189042  0.2430192 -0.2138196  )
       199           O   tau( 199) = (  0.2947575  0.1264214  0.2956720  )
       200           H   tau( 200) = (  0.3207424  0.0980971  0.2793374  )
       201           H   tau( 201) = (  0.3019848  0.1299307  0.3366546  )
       202           O   tau( 202) = ( -0.0065710 -0.2375381  0.2297907  )
       203           H   tau( 203) = ( -0.0482220 -0.2406087  0.2288298  )
       204           H   tau( 204) = (  0.0074617 -0.2500585  0.2670970  )
       205           O   tau( 205) = (  0.2047295  0.1225362  0.0791870  )
       206           H   tau( 206) = (  0.1793713  0.1535761  0.0674479  )
       207           H   tau( 207) = (  0.2395292  0.1384948  0.0958558  )
       208           O   tau( 208) = (  0.2031838 -0.1895872 -0.0833354  )
       209           H   tau( 209) = (  0.1705982 -0.2050403 -0.1043740  )
       210           H   tau( 210) = (  0.1935334 -0.1867005 -0.0427998  )
       211           O   tau( 211) = (  0.3051598  0.2194155  0.2305009  )
       212           H   tau( 212) = (  0.2963868  0.1830284  0.2490078  )
       213           H   tau( 213) = (  0.3402519  0.2352488  0.2467519  )
       214           O   tau( 214) = (  0.1685512 -0.0645841 -0.0020470  )
       215           H   tau( 215) = (  0.1316627 -0.0551009 -0.0192088  )
       216           H   tau( 216) = (  0.1781598 -0.1042967 -0.0107532  )
       217           O   tau( 217) = (  0.3709575  0.0187638 -0.1155241  )
       218           H   tau( 218) = (  0.3327322  0.0064398 -0.1040815  )
       219           H   tau( 219) = (  0.3908430 -0.0129611 -0.1340895  )
       220           O   tau( 220) = (  0.2312575  0.3101537  0.2167565  )
       221           H   tau( 221) = (  0.2591641  0.2818294  0.2296236  )
       222           H   tau( 222) = (  0.2038104  0.2919393  0.1910640  )
       223           O   tau( 223) = ( -0.0291093 -0.1475436  0.0705811  )
       224           H   tau( 224) = ( -0.0426198 -0.1156055  0.0473117  )
       225           H   tau( 225) = ( -0.0091695 -0.1750491  0.0462673  )
       226           O   tau( 226) = (  0.2260354 -0.3393053 -0.1464845  )
       227           H   tau( 227) = (  0.1961654 -0.3109224 -0.1395079  )
       228           H   tau( 228) = (  0.2562397 -0.3350524 -0.1179388  )
       229           O   tau( 229) = ( -0.2335752  0.2041672 -0.0838158  )
       230           H   tau( 230) = ( -0.2752638  0.2018695 -0.0852571  )
       231           H   tau( 231) = ( -0.2177002  0.1923863 -0.1206250  )
       232           O   tau( 232) = (  0.3208677 -0.1794941 -0.0524836  )
       233           H   tau( 233) = (  0.2825588 -0.1961252 -0.0531896  )
       234           H   tau( 234) = (  0.3276772 -0.1617809 -0.0152692  )
       235           O   tau( 235) = ( -0.2278936  0.2230919  0.0278857  )
       236           H   tau( 236) = ( -0.2283741  0.2108514 -0.0120692  )
       237           H   tau( 237) = ( -0.1884067  0.2290241  0.0401679  )
       238           O   tau( 238) = (  0.2580361 -0.1829866  0.1021222  )
       239           H   tau( 239) = (  0.2464223 -0.1584012  0.1338305  )
       240           H   tau( 240) = (  0.2925851 -0.2039792  0.1127334  )
       241           O   tau( 241) = (  0.2420358  0.3306241 -0.1262439  )
       242           H   tau( 242) = (  0.2673522  0.3188014 -0.0951790  )
       243           H   tau( 243) = (  0.2564068  0.3155011 -0.1624389  )
       244           O   tau( 244) = (  0.3636049  0.2171179 -0.1377783  )
       245           H   tau( 245) = (  0.3442207  0.2508731 -0.1226052  )
       246           H   tau( 246) = (  0.3354059  0.1874149 -0.1460124  )
       247           O   tau( 247) = (  0.1264824  0.0362681 -0.1067761  )
       248           H   tau( 248) = (  0.1660028  0.0287484 -0.1179680  )
       249           H   tau( 249) = (  0.1255216  0.0498037 -0.0672641  )
       250           O   tau( 250) = (  0.1491252 -0.4095856  0.0328989  )
       251           H   tau( 251) = (  0.1489999 -0.4138551 -0.0086393  )
       252           H   tau( 252) = (  0.1608226 -0.4455968  0.0505702  )
       253           O   tau( 253) = ( -0.1788858 -0.0327422  0.3771358  )
       254           H   tau( 254) = ( -0.1814718 -0.0735034  0.3683628  )
       255           H   tau( 255) = ( -0.1389142 -0.0223608  0.3834023  )
       256           O   tau( 256) = (  0.2928776 -0.0121130  0.2671387  )
       257           H   tau( 257) = (  0.2662243  0.0140431  0.2858545  )
       258           H   tau( 258) = (  0.2905381 -0.0070999  0.2256966  )
       259           O   tau( 259) = (  0.3227476  0.1421293  0.1100597  )
       260           H   tau( 260) = (  0.3174003  0.1728349  0.1379246  )
       261           H   tau( 261) = (  0.3371605  0.1581715  0.0742992  )
       262           O   tau( 262) = ( -0.1519067  0.0424510  0.0695367  )
       263           H   tau( 263) = ( -0.1551819  0.0187221  0.1037515  )
       264           H   tau( 264) = ( -0.1900735  0.0527698  0.0560429  )
       265           O   tau( 265) = (  0.0128508 -0.2595835  0.3400802  )
       266           H   tau( 266) = (  0.0479847 -0.2471634  0.3590049  )
       267           H   tau( 267) = (  0.0160676 -0.2999812  0.3298868  )
       268           O   tau( 268) = ( -0.0702715 -0.0764444 -0.4235201  )
       269           H   tau( 269) = ( -0.0916861 -0.0869721 -0.4578143  )
       270           H   tau( 270) = ( -0.0303000 -0.0877031 -0.4280612  )
       271           O   tau( 271) = (  0.3326486 -0.1249008  0.0450975  )
       272           H   tau( 272) = (  0.3593855 -0.1034695  0.0689936  )
       273           H   tau( 273) = (  0.3005644 -0.1380144  0.0684505  )
       274           O   tau( 274) = ( -0.3018085 -0.1260914 -0.0920959  )
       275           H   tau( 275) = ( -0.2604541 -0.1203597 -0.0905502  )
       276           H   tau( 276) = ( -0.3099925 -0.1656619 -0.1027029  )
       277           O   tau( 277) = ( -0.1915566 -0.1171763 -0.0446046  )
       278           H   tau( 278) = ( -0.1971254 -0.1084869 -0.0041233  )
       279           H   tau( 279) = ( -0.1786143 -0.0828320 -0.0645611  )
       280           O   tau( 280) = (  0.0434729 -0.0566174 -0.4048711  )
       281           H   tau( 281) = (  0.0794005 -0.0696349 -0.4217947  )
       282           H   tau( 282) = (  0.0389192 -0.0737457 -0.3670427  )
       283           O   tau( 283) = ( -0.0417174 -0.0731650  0.1622384  )
       284           H   tau( 284) = ( -0.0381664 -0.1048941  0.1352926  )
       285           H   tau( 285) = ( -0.0337799 -0.0867882  0.2009233  )
       286           O   tau( 286) = (  0.1969591  0.0025546  0.0801479  )
       287           H   tau( 287) = (  0.1903167  0.0433283  0.0738814  )
       288           H   tau( 288) = (  0.1814183 -0.0191732  0.0480637  )
       289           O   tau( 289) = (  0.0903877  0.2883465  0.0461420  )
       290           H   tau( 290) = (  0.0976150  0.2807850  0.0057025  )
       291           H   tau( 291) = (  0.0689982  0.3239817  0.0500689  )
       292           O   tau( 292) = (  0.1071818  0.1707043  0.0549150  )
       293           H   tau( 293) = (  0.0791081  0.1542027  0.0810670  )
       294           H   tau( 294) = (  0.0979910  0.2108514  0.0481054  )
       295           O   tau( 295) = (  0.4002427  0.0648431 -0.0197727  )
       296           H   tau( 296) = (  0.3951460  0.0540231 -0.0598070  )
       297           H   tau( 297) = (  0.4367135  0.0846451 -0.0152066  )
       298           O   tau( 298) = ( -0.1280607 -0.2518966  0.0223294  )
       299           H   tau( 299) = ( -0.0983912 -0.2292330  0.0035719  )
       300           H   tau( 300) = ( -0.1203572 -0.2537264  0.0633538  )
       301           O   tau( 301) = (  0.3109667  0.1525734 -0.2895392  )
       302           H   tau( 302) = (  0.3344450  0.1540356 -0.3240715  )
       303           H   tau( 303) = (  0.2752479  0.1732527 -0.2960897  )
       304           O   tau( 304) = ( -0.2171237 -0.0999394 -0.3547479  )
       305           H   tau( 305) = ( -0.1760576 -0.1015938 -0.3472616  )
       306           H   tau( 306) = ( -0.2379367 -0.1010716 -0.3185403  )
       307           O   tau( 307) = (  0.3441371  0.1651481 -0.0122029  )
       308           H   tau( 308) = (  0.3643569  0.1290951 -0.0062915  )
       309           H   tau( 309) = (  0.3447638  0.1749655 -0.0528053  )
       310           O   tau( 310) = ( -0.0956590 -0.3896624 -0.1720266  )
       311           H   tau( 311) = ( -0.0589585 -0.3714020 -0.1639763  )
       312           H   tau( 312) = ( -0.1211468 -0.3621653 -0.1904541  )
       313           O   tau( 313) = ( -0.1982157 -0.0949680  0.0736726  )
       314           H   tau( 314) = ( -0.2377946 -0.1065401  0.0803568  )
       315           H   tau( 315) = ( -0.1874124 -0.0656160  0.1013703  )
       316           O   tau( 316) = ( -0.0264148 -0.2848999  0.1164515  )
       317           H   tau( 317) = ( -0.0222288 -0.2572106  0.1474496  )
       318           H   tau( 318) = (  0.0100518 -0.2891110  0.0965242  )
       319           O   tau( 319) = (  0.1475377 -0.2594331 -0.1647951  )
       320           H   tau( 320) = (  0.1118607 -0.2762564 -0.1785855  )
       321           H   tau( 321) = (  0.1624936 -0.2330346 -0.1935080  )
       322           O   tau( 322) = ( -0.2804691 -0.2951268  0.1230522  )
       323           H   tau( 323) = ( -0.3215395 -0.2993546  0.1294022  )
       324           H   tau( 324) = ( -0.2635999 -0.3326127  0.1155742  )
       325           O   tau( 325) = (  0.1672561 -0.0729018 -0.2732715  )
       326           H   tau( 326) = (  0.1313285 -0.0936270 -0.2783056  )
       327           H   tau( 327) = (  0.1716009 -0.0449200 -0.3039855  )
       328           O   tau( 328) = ( -0.0771605 -0.2127648  0.3926348  )
       329           H   tau( 329) = ( -0.0406605 -0.2246877  0.3761750  )
       330           H   tau( 330) = ( -0.0830843 -0.2323537  0.4290638  )
       331           O   tau( 331) = ( -0.2153148 -0.2989827  0.2126624  )
       332           H   tau( 332) = ( -0.2251615 -0.2965723  0.1721394  )
       333           H   tau( 333) = ( -0.2217400 -0.2618937  0.2307933  )
       334           O   tau( 334) = (  0.3310193 -0.2454673  0.1933617  )
       335           H   tau( 335) = (  0.3290559 -0.2509149  0.2347621  )
       336           H   tau( 336) = (  0.3691611 -0.2320947  0.1828759  )
       337           O   tau( 337) = ( -0.0057647  0.0686866  0.3639763  )
       338           H   tau( 338) = ( -0.0236909  0.1062435  0.3599657  )
       339           H   tau( 339) = (  0.0357442  0.0731566  0.3652713  )
       340           O   tau( 340) = (  0.2419104  0.0264089 -0.1246021  )
       341           H   tau( 341) = (  0.2487200 -0.0023708 -0.1541087  )
       342           H   tau( 342) = (  0.2396127  0.0077767 -0.0872708  )
       343           O   tau( 343) = ( -0.0482596  0.1578372 -0.0747462  )
       344           H   tau( 344) = ( -0.0612562  0.1779734 -0.1089568  )
       345           H   tau( 345) = ( -0.0110661  0.1728349 -0.0630447  )
       346           O   tau( 346) = ( -0.2627100  0.2324915  0.1871788  )
       347           H   tau( 347) = ( -0.2732753  0.2729310  0.1876384  )
       348           H   tau( 348) = ( -0.2212011  0.2289406  0.1902285  )
       349           O   tau( 349) = (  0.1949121 -0.1978255 -0.2483770  )
       350           H   tau( 350) = (  0.1958729 -0.2109976 -0.2880102  )
       351           H   tau( 351) = (  0.1764469 -0.1604107 -0.2465639  )
       352           O   tau( 352) = (  0.0119735  0.3477107 -0.2018089  )
       353           H   tau( 353) = (  0.0504495  0.3431988 -0.1861511  )
       354           H   tau( 354) = ( -0.0072854  0.3793771 -0.1825667  )
       355           O   tau( 355) = ( -0.0949405 -0.3753917  0.1002005  )
       356           H   tau( 356) = ( -0.1242967 -0.3726177  0.0706229  )
       357           H   tau( 357) = ( -0.0739186 -0.3393554  0.1023729  )
       358           O   tau( 358) = ( -0.1641847  0.0039750  0.2695618  )
       359           H   tau( 359) = ( -0.1657096 -0.0106175  0.3086644  )
       360           H   tau( 360) = ( -0.1243259  0.0091135  0.2581568  )
       361           O   tau( 361) = ( -0.1127414 -0.2109517  0.2248611  )
       362           H   tau( 362) = ( -0.1213515 -0.2014308  0.1850900  )
       363           H   tau( 363) = ( -0.1483432 -0.2137005  0.2465430  )
       364           O   tau( 364) = ( -0.0795041 -0.0098362 -0.3221080  )
       365           H   tau( 365) = ( -0.0767970 -0.0321991 -0.3572921  )
       366           H   tau( 366) = ( -0.1015704  0.0249050 -0.3293479  )
       367           O   tau( 367) = ( -0.1628938  0.2990412 -0.0695033  )
       368           H   tau( 368) = ( -0.1518148  0.3016731 -0.0293061  )
       369           H   tau( 369) = ( -0.1865225  0.2650771 -0.0752559  )
       370           O   tau( 370) = (  0.1406864  0.2734741  0.1491206  )
       371           H   tau( 371) = (  0.1266913  0.2794064  0.1102268  )
       372           H   tau( 372) = (  0.1083933  0.2728475  0.1756068  )
       373           O   tau( 373) = ( -0.2959139 -0.2073547  0.0580900  )
       374           H   tau( 374) = ( -0.2904495 -0.2384280  0.0854535  )
       375           H   tau( 375) = ( -0.2775281 -0.2172808  0.0219117  )
       376           O   tau( 376) = ( -0.0028738 -0.3544951 -0.0004387  )
       377           H   tau( 377) = (  0.0242975 -0.3239023  0.0079584  )
       378           H   tau( 378) = ( -0.0400505 -0.3379099 -0.0098049  )
       379           O   tau( 379) = (  0.2585374 -0.0551468 -0.2004219  )
       380           H   tau( 380) = (  0.2784229 -0.0917011 -0.2040815  )
       381           H   tau( 381) = (  0.2457956 -0.0424009 -0.2381084  )
       382           O   tau( 382) = ( -0.0549856  0.4074508  0.0011488  )
       383           H   tau( 383) = ( -0.0683331  0.4032732  0.0405022  )
       384           H   tau( 384) = ( -0.0408819  0.4463446 -0.0047333  )
       385           O   tau( 385) = ( -0.0560467 -0.0283056  0.3984000  )
       386           H   tau( 386) = ( -0.0274466 -0.0587354  0.3972720  )
       387           H   tau( 387) = ( -0.0389059  0.0074007  0.3850733  )
       388           O   tau( 388) = (  0.4163266 -0.0646718  0.0932239  )
       389           H   tau( 389) = (  0.4114806 -0.0235472  0.0987384  )
       390           H   tau( 390) = (  0.4500819 -0.0716527  0.0695785  )
       391           O   tau( 391) = ( -0.0165179  0.2217968 -0.1814346  )
       392           H   tau( 392) = (  0.0222087  0.2062560 -0.1830597  )
       393           H   tau( 393) = ( -0.0146840  0.2634060 -0.1780173  )
       394           O   tau( 394) = (  0.1337515  0.2692129 -0.0680704  )
       395           H   tau( 395) = (  0.1287384  0.2971613 -0.0987258  )
       396           H   tau( 396) = (  0.1694285  0.2770251 -0.0478172  )
       397           O   tau( 397) = (  0.0109291  0.0792142 -0.2982496  )
       398           H   tau( 398) = ( -0.0181639  0.0553181 -0.3164056  )
       399           H   tau( 399) = (  0.0013874  0.0844780 -0.2579187  )
       400           O   tau( 400) = ( -0.3230183 -0.0974036  0.0895476  )
[...]
          1952 MiB given to the printing process from OS
          1359 MiB allocation reported by mallinfo(arena+hblkhd)
        216839 MiB available memory on the node where the printing process lives
     GPU memory used/free/total (MiB): 6481 / 9679 / 16160
------------------
     ethr =  1.68E-11,  avg # of iterations =  3.0

     negative rho (up, down):  1.032E-02 0.000E+00

     total cpu time spent up to now is      106.2 secs

     total energy              =   -8371.21847429 Ry
     estimated scf accuracy    <       0.00000030 Ry
[tb_dev] Currently allocated     1.82E+03 Mbytes, locked:    0 /  14
[tb_pin] Currently allocated     3.92E+00 Mbytes, locked:    0 /   1

     iteration # 17     ecut=    60.00 Ry     beta= 0.70
     Davidson diagonalization with overlap

---- Real-time Memory Report at c_bands before calling an iterative solver
          1954 MiB given to the printing process from OS
          1361 MiB allocation reported by mallinfo(arena+hblkhd)
        216830 MiB available memory on the node where the printing process lives
     GPU memory used/free/total (MiB): 6481 / 9679 / 16160
------------------
     ethr =  1.68E-11,  avg # of iterations =  2.0

     negative rho (up, down):  1.032E-02 0.000E+00

     total cpu time spent up to now is      111.4 secs

     total energy              =   -8371.21847431 Ry
     estimated scf accuracy    <       0.00000005 Ry
[tb_dev] Currently allocated     1.82E+03 Mbytes, locked:    0 /  14
[tb_pin] Currently allocated     3.92E+00 Mbytes, locked:    0 /   1

     iteration # 18     ecut=    60.00 Ry     beta= 0.70
     Davidson diagonalization with overlap

---- Real-time Memory Report at c_bands before calling an iterative solver
          1957 MiB given to the printing process from OS
          1362 MiB allocation reported by mallinfo(arena+hblkhd)
        216941 MiB available memory on the node where the printing process lives
     GPU memory used/free/total (MiB): 6481 / 9679 / 16160
------------------
     ethr =  3.46E-12,  avg # of iterations =  3.0

     negative rho (up, down):  1.032E-02 0.000E+00

     total cpu time spent up to now is      117.6 secs

     total energy              =   -8371.21847433 Ry
     estimated scf accuracy    <          4.6E-09 Ry
[tb_dev] Currently allocated     1.82E+03 Mbytes, locked:    0 /  14
[tb_pin] Currently allocated     3.92E+00 Mbytes, locked:    0 /   1

     iteration # 19     ecut=    60.00 Ry     beta= 0.70
     Davidson diagonalization with overlap

---- Real-time Memory Report at c_bands before calling an iterative solver
          1959 MiB given to the printing process from OS
          1364 MiB allocation reported by mallinfo(arena+hblkhd)
        216793 MiB available memory on the node where the printing process lives
     GPU memory used/free/total (MiB): 6481 / 9679 / 16160
------------------
     ethr =  3.01E-13,  avg # of iterations =  3.0

     negative rho (up, down):  1.032E-02 0.000E+00

     total cpu time spent up to now is      123.1 secs

     total energy              =   -8371.21847433 Ry
     estimated scf accuracy    <          2.5E-09 Ry
[tb_dev] Currently allocated     1.82E+03 Mbytes, locked:    0 /  14
[tb_pin] Currently allocated     3.92E+00 Mbytes, locked:    0 /   1

     iteration # 20     ecut=    60.00 Ry     beta= 0.70
     Davidson diagonalization with overlap

---- Real-time Memory Report at c_bands before calling an iterative solver
          1960 MiB given to the printing process from OS
          1366 MiB allocation reported by mallinfo(arena+hblkhd)
        216767 MiB available memory on the node where the printing process lives
     GPU memory used/free/total (MiB): 6481 / 9679 / 16160
------------------
     ethr =  1.66E-13,  avg # of iterations =  2.0

     negative rho (up, down):  1.032E-02 0.000E+00

     total cpu time spent up to now is      128.1 secs

     total energy              =   -8371.21847433 Ry
     estimated scf accuracy    <          4.7E-10 Ry
[tb_dev] Currently allocated     1.82E+03 Mbytes, locked:    0 /  14
[tb_pin] Currently allocated     3.92E+00 Mbytes, locked:    0 /   1

     iteration # 21     ecut=    60.00 Ry     beta= 0.70
     Davidson diagonalization with overlap

---- Real-time Memory Report at c_bands before calling an iterative solver
          1960 MiB given to the printing process from OS
          1368 MiB allocation reported by mallinfo(arena+hblkhd)
        216744 MiB available memory on the node where the printing process lives
     GPU memory used/free/total (MiB): 6481 / 9679 / 16160
------------------
     ethr =  1.00E-13,  avg # of iterations =  2.0

     negative rho (up, down):  1.032E-02 0.000E+00

     total cpu time spent up to now is      133.2 secs

     End of self-consistent calculation

          k = 0.0000 0.0000 0.0000 (363144 PWs)   bands (ev):

   -25.3067 -25.1692 -24.9157 -24.7605 -24.6864 -24.5266 -24.4599 -24.4530
   -24.4490 -24.4029 -24.4022 -24.3181 -24.2940 -24.2918 -24.2845 -24.2184
   -24.2107 -24.1724 -24.1627 -24.1205 -24.0923 -24.0706 -24.0622 -24.0495
   -24.0441 -24.0215 -24.0106 -23.9980 -23.9918 -23.9840 -23.9820 -23.9768
   -23.9683 -23.9465 -23.9396 -23.9269 -23.9128 -23.8915 -23.8672 -23.8475
   -23.8452 -23.8392 -23.8372 -23.8362 -23.8316 -23.8032 -23.7990 -23.7884
   -23.7712 -23.7529 -23.7436 -23.7231 -23.7228 -23.6867 -23.6782 -23.6606
   -23.6526 -23.6479 -23.6276 -23.6232 -23.6178 -23.6115 -23.6096 -23.5937
   -23.5879 -23.5745 -23.5583 -23.5479 -23.5317 -23.5293 -23.5183 -23.5070
   -23.4886 -23.4809 -23.4648 -23.4319 -23.4270 -23.4207 -23.4082 -23.3958
   -23.3931 -23.3850 -23.3305 -23.2912 -23.2900 -23.2825 -23.2695 -23.2608
   -23.2561 -23.2526 -23.2340 -23.2299 -23.2273 -23.2138 -23.2086 -23.1825
   -23.1764 -23.1705 -23.1692 -23.1463 -23.1452 -23.1342 -23.1299 -23.1106
   -23.0973 -23.0794 -23.0709 -23.0632 -23.0576 -23.0483 -23.0445 -23.0280
   -23.0241 -23.0155 -23.0122 -23.0045 -23.0008 -22.9956 -22.9794 -22.9644
   -22.9577 -22.9475 -22.9163 -22.9071 -22.8902 -22.8725 -22.8687 -22.8600
   -22.8563 -22.8425 -22.8367 -22.8288 -22.8278 -22.8092 -22.8013 -22.7893
   -22.7716 -22.7677 -22.7584 -22.7485 -22.7233 -22.7109 -22.7021 -22.7017
   -22.7001 -22.6966 -22.6894 -22.6855 -22.6783 -22.6739 -22.6718 -22.6516
   -22.6463 -22.6426 -22.6335 -22.6227 -22.5996 -22.5610 -22.5482 -22.5443
   -22.5277 -22.5200 -22.5076 -22.5056 -22.4955 -22.4743 -22.4691 -22.4644
   -22.4361 -22.4153 -22.3175 -22.2985 -22.2976 -22.2736 -22.2610 -22.2592
   -22.2403 -22.2302 -22.2013 -22.1949 -22.0470 -21.9977 -21.9111 -21.6850
   -21.5818 -21.4833 -21.3584 -21.2463 -21.1655 -21.0491 -13.4406 -13.3668
   -13.0264 -12.9999 -12.7870 -12.6587 -12.6577 -12.5760 -12.5674 -12.5337
   -12.5131 -12.5035 -12.4770 -12.4686 -12.4439 -12.4387 -12.4247 -12.4090
   -12.3597 -12.3113 -12.3017 -12.2890 -12.2573 -12.2410 -12.2338 -12.2242
   -12.2048 -12.1968 -12.1775 -12.1496 -12.1477 -12.1440 -12.1309 -12.1213
   -12.1122 -12.1106 -12.1091 -12.0904 -12.0806 -12.0757 -12.0589 -12.0327
   -12.0279 -12.0157 -11.9835 -11.9750 -11.9714 -11.9593 -11.9517 -11.9368
   -11.9341 -11.9141 -11.9084 -11.9019 -11.8951 -11.8851 -11.8704 -11.8573
   -11.8418 -11.8173 -11.8104 -11.8023 -11.7993 -11.7833 -11.7688 -11.7593
   -11.7509 -11.7383 -11.7204 -11.7060 -11.6988 -11.6820 -11.6600 -11.6552
   -11.6459 -11.6373 -11.6277 -11.6152 -11.6075 -11.5979 -11.5850 -11.5733
   -11.5575 -11.5458 -11.5321 -11.5138 -11.5050 -11.4930 -11.4846 -11.4793
   -11.4648 -11.4624 -11.4436 -11.4358 -11.4248 -11.4212 -11.4166 -11.4134
   -11.4121 -11.4053 -11.3783 -11.3724 -11.3620 -11.3473 -11.3415 -11.3354
   -11.3336 -11.3171 -11.3066 -11.3029 -11.2971 -11.2934 -11.2909 -11.2858
   -11.2749 -11.2635 -11.2606 -11.2526 -11.2434 -11.2349 -11.2312 -11.2257
   -11.2150 -11.2007 -11.1928 -11.1887 -11.1666 -11.1621 -11.1514 -11.1383
   -11.1155 -11.1071 -11.0822 -11.0682 -11.0592 -11.0586 -11.0510 -11.0345
   -11.0271 -11.0239 -11.0221 -10.9937 -10.9895 -10.9764 -10.9578 -10.9520
   -10.9404 -10.9258 -10.9193 -10.8991 -10.8714 -10.8656 -10.8558 -10.8387
   -10.8188 -10.8125 -10.7996 -10.7909 -10.7868 -10.7751 -10.7631 -10.7422
   -10.7384 -10.7207 -10.7176 -10.7049 -10.6961 -10.6889 -10.6711 -10.6625
   -10.6353 -10.6084 -10.5617 -10.5597 -10.5396 -10.5315 -10.5033 -10.5029
   -10.4920 -10.4499 -10.4187 -10.3715 -10.2662 -10.2642  -9.8612  -9.8553
    -9.7985  -9.7291  -9.7109  -9.5202  -9.4122  -9.3585  -9.3519  -9.2833
    -9.2808  -9.2210  -9.2006  -9.1291  -9.1061  -9.0555  -9.0321  -9.0062
    -9.0035  -8.9812  -8.9788  -8.9264  -8.9221  -8.9007  -8.8480  -8.8279
    -8.7927  -8.7880  -8.7536  -8.7447  -8.6889  -8.6718  -8.6596  -8.6532
    -8.6490  -8.6394  -8.6262  -8.5970  -8.5845  -8.5804  -8.5641  -8.5393
    -8.5314  -8.5157  -8.4806  -8.4772  -8.4530  -8.4411  -8.4157  -8.4013
    -8.3872  -8.3731  -8.3686  -8.3601  -8.3558  -8.3256  -8.2954  -8.2717
    -8.2483  -8.2382  -8.2272  -8.2099  -8.1970  -8.1801  -8.1722  -8.1546
    -8.1436  -8.1387  -8.1252  -8.1138  -8.1087  -8.0899  -8.0833  -8.0778
    -8.0668  -8.0512  -8.0308  -8.0108  -8.0046  -7.9927  -7.9887  -7.9768
    -7.9685  -7.9563  -7.9422  -7.9018  -7.8827  -7.8648  -7.8553  -7.8476
    -7.8322  -7.8090  -7.8069  -7.7844  -7.7583  -7.7338  -7.7297  -7.7184
    -7.6824  -7.6575  -7.6429  -7.6342  -7.6301  -7.6292  -7.6210  -7.5940
    -7.5875  -7.5685  -7.5392  -7.5271  -7.5206  -7.5095  -7.5035  -7.4698
    -7.4600  -7.4466  -7.4335  -7.4229  -7.4135  -7.3905  -7.3852  -7.3610
    -7.3509  -7.3360  -7.3286  -7.3142  -7.2969  -7.2856  -7.2787  -7.2732
    -7.2617  -7.2385  -7.2239  -7.2119  -7.2093  -7.2016  -7.1983  -7.1913
    -7.1792  -7.1638  -7.1440  -7.1297  -7.1180  -7.0815  -7.0783  -7.0532
    -7.0348  -7.0178  -7.0089  -6.9977  -6.9837  -6.9752  -6.9701  -6.9670
    -6.9518  -6.9409  -6.9248  -6.8915  -6.8873  -6.8508  -6.8352  -6.8325
    -6.8272  -6.8119  -6.8004  -6.7973  -6.7749  -6.7708  -6.7593  -6.7370
    -6.7275  -6.7153  -6.7120  -6.6966  -6.6805  -6.6733  -6.6624  -6.6435
    -6.6392  -6.6211  -6.6054  -6.5899  -6.5877  -6.5708  -6.5628  -6.5393
    -6.5271  -6.5206  -6.5053  -6.4991  -6.4884  -6.4747  -6.4668  -6.4638
    -6.4372  -6.4156  -6.3838  -6.3795  -6.3664  -6.3572  -6.3518  -6.3295
    -6.3135  -6.2969  -6.2922  -6.2716  -6.2675  -6.2572  -6.2421  -6.2413
    -6.2202  -6.2158  -6.2103  -6.2054  -6.1988  -6.1900  -6.1837  -6.1828
    -6.1763  -6.1649  -6.1634  -6.1431  -6.1364  -6.1305  -6.1275  -6.1252
    -6.1187  -6.1134  -6.1117  -6.1035  -6.0990  -6.0928  -6.0849  -6.0678
    -6.0610  -6.0560  -6.0478  -6.0328  -6.0161  -5.9741  -5.9718  -5.9600
    -5.9571  -5.9457  -5.9246  -5.9207  -5.9205  -5.9161  -5.9034  -5.8932
    -5.8892  -5.8832  -5.8811  -5.8724  -5.8550  -5.8414  -5.8334  -5.8303
    -5.8195  -5.7990  -5.7919  -5.7823  -5.7802  -5.7734  -5.7645  -5.7587
    -5.7473  -5.7365  -5.7273  -5.7236  -5.7160  -5.7065  -5.7049  -5.7029
    -5.6837  -5.6760  -5.6717  -5.6645  -5.6612  -5.6502  -5.6467  -5.6403
    -5.6336  -5.6250  -5.6141  -5.6105  -5.6034  -5.5945  -5.5836  -5.5787
    -5.5678  -5.5674  -5.5468  -5.5382  -5.5332  -5.5276  -5.5202  -5.5099
    -5.4965  -5.4913  -5.4786  -5.4664  -5.4639  -5.4611  -5.4603  -5.4555
    -5.4350  -5.4292  -5.4249  -5.4174  -5.3788  -5.3762  -5.3672  -5.3449
    -5.3420  -5.3335  -5.3225  -5.3193  -5.3025  -5.2936  -5.2808  -5.2720
    -5.2712  -5.2691  -5.2480  -5.2444  -5.2360  -5.2268  -5.2211  -5.2018
    -5.1916  -5.1852  -5.1810  -5.1510  -5.1381  -5.1373  -5.1239  -5.1063
    -5.1052  -5.0988  -5.0925  -5.0857  -5.0818  -5.0764  -5.0714  -5.0668
    -5.0086  -4.9957  -4.9902  -4.9725  -4.9620  -4.9619  -4.9529  -4.9343
    -4.9157  -4.9135  -4.9128  -4.8852  -4.8724  -4.8455  -4.8387  -4.8267
    -4.8188  -4.7977  -4.7905  -4.7589  -4.7557  -4.6959  -4.6665  -4.6660
    -4.6417  -4.5687  -4.5433  -4.5321  -4.5130  -4.4563  -4.4468  -4.3831
    -4.3155  -4.1545  -4.0422  -3.8747  -3.8403  -3.5989  -3.5797  -3.4289

     occupation numbers 
     1.0000   1.0000   1.0000   1.0000   1.0000   1.0000   1.0000   1.0000
     1.0000   1.0000   1.0000   1.0000   1.0000   1.0000   1.0000   1.0000
     1.0000   1.0000   1.0000   1.0000   1.0000   1.0000   1.0000   1.0000
     1.0000   1.0000   1.0000   1.0000   1.0000   1.0000   1.0000   1.0000
     1.0000   1.0000   1.0000   1.0000   1.0000   1.0000   1.0000   1.0000
     1.0000   1.0000   1.0000   1.0000   1.0000   1.0000   1.0000   1.0000
     1.0000   1.0000   1.0000   1.0000   1.0000   1.0000   1.0000   1.0000
     1.0000   1.0000   1.0000   1.0000   1.0000   1.0000   1.0000   1.0000
     1.0000   1.0000   1.0000   1.0000   1.0000   1.0000   1.0000   1.0000
     1.0000   1.0000   1.0000   1.0000   1.0000   1.0000   1.0000   1.0000
     1.0000   1.0000   1.0000   1.0000   1.0000   1.0000   1.0000   1.0000
     1.0000   1.0000   1.0000   1.0000   1.0000   1.0000   1.0000   1.0000
     1.0000   1.0000   1.0000   1.0000   1.0000   1.0000   1.0000   1.0000
     1.0000   1.0000   1.0000   1.0000   1.0000   1.0000   1.0000   1.0000
     1.0000   1.0000   1.0000   1.0000   1.0000   1.0000   1.0000   1.0000
     1.0000   1.0000   1.0000   1.0000   1.0000   1.0000   1.0000   1.0000
     1.0000   1.0000   1.0000   1.0000   1.0000   1.0000   1.0000   1.0000
     1.0000   1.0000   1.0000   1.0000   1.0000   1.0000   1.0000   1.0000
     1.0000   1.0000   1.0000   1.0000   1.0000   1.0000   1.0000   1.0000
     1.0000   1.0000   1.0000   1.0000   1.0000   1.0000   1.0000   1.0000
     1.0000   1.0000   1.0000   1.0000   1.0000   1.0000   1.0000   1.0000
     1.0000   1.0000   1.0000   1.0000   1.0000   1.0000   1.0000   1.0000
     1.0000   1.0000   1.0000   1.0000   1.0000   1.0000   1.0000   1.0000
     1.0000   1.0000   1.0000   1.0000   1.0000   1.0000   1.0000   1.0000
     1.0000   1.0000   1.0000   1.0000   1.0000   1.0000   1.0000   1.0000
     1.0000   1.0000   1.0000   1.0000   1.0000   1.0000   1.0000   1.0000
     1.0000   1.0000   1.0000   1.0000   1.0000   1.0000   1.0000   1.0000
     1.0000   1.0000   1.0000   1.0000   1.0000   1.0000   1.0000   1.0000
     1.0000   1.0000   1.0000   1.0000   1.0000   1.0000   1.0000   1.0000
     1.0000   1.0000   1.0000   1.0000   1.0000   1.0000   1.0000   1.0000
     1.0000   1.0000   1.0000   1.0000   1.0000   1.0000   1.0000   1.0000
     1.0000   1.0000   1.0000   1.0000   1.0000   1.0000   1.0000   1.0000
     1.0000   1.0000   1.0000   1.0000   1.0000   1.0000   1.0000   1.0000
     1.0000   1.0000   1.0000   1.0000   1.0000   1.0000   1.0000   1.0000
     1.0000   1.0000   1.0000   1.0000   1.0000   1.0000   1.0000   1.0000
     1.0000   1.0000   1.0000   1.0000   1.0000   1.0000   1.0000   1.0000
     1.0000   1.0000   1.0000   1.0000   1.0000   1.0000   1.0000   1.0000
     1.0000   1.0000   1.0000   1.0000   1.0000   1.0000   1.0000   1.0000
     1.0000   1.0000   1.0000   1.0000   1.0000   1.0000   1.0000   1.0000
     1.0000   1.0000   1.0000   1.0000   1.0000   1.0000   1.0000   1.0000
     1.0000   1.0000   1.0000   1.0000   1.0000   1.0000   1.0000   1.0000
     1.0000   1.0000   1.0000   1.0000   1.0000   1.0000   1.0000   1.0000
     1.0000   1.0000   1.0000   1.0000   1.0000   1.0000   1.0000   1.0000
     1.0000   1.0000   1.0000   1.0000   1.0000   1.0000   1.0000   1.0000
     1.0000   1.0000   1.0000   1.0000   1.0000   1.0000   1.0000   1.0000
     1.0000   1.0000   1.0000   1.0000   1.0000   1.0000   1.0000   1.0000
     1.0000   1.0000   1.0000   1.0000   1.0000   1.0000   1.0000   1.0000
     1.0000   1.0000   1.0000   1.0000   1.0000   1.0000   1.0000   1.0000
     1.0000   1.0000   1.0000   1.0000   1.0000   1.0000   1.0000   1.0000
     1.0000   1.0000   1.0000   1.0000   1.0000   1.0000   1.0000   1.0000
     1.0000   1.0000   1.0000   1.0000   1.0000   1.0000   1.0000   1.0000
     1.0000   1.0000   1.0000   1.0000   1.0000   1.0000   1.0000   1.0000
     1.0000   1.0000   1.0000   1.0000   1.0000   1.0000   1.0000   1.0000
     1.0000   1.0000   1.0000   1.0000   1.0000   1.0000   1.0000   1.0000
     1.0000   1.0000   1.0000   1.0000   1.0000   1.0000   1.0000   1.0000
     1.0000   1.0000   1.0000   1.0000   1.0000   1.0000   1.0000   1.0000
     1.0000   1.0000   1.0000   1.0000   1.0000   1.0000   1.0000   1.0000
     1.0000   1.0000   1.0000   1.0000   1.0000   1.0000   1.0000   1.0000
     1.0000   1.0000   1.0000   1.0000   1.0000   1.0000   1.0000   1.0000
     1.0000   1.0000   1.0000   1.0000   1.0000   1.0000   1.0000   1.0000
     1.0000   1.0000   1.0000   1.0000   1.0000   1.0000   1.0000   1.0000
     1.0000   1.0000   1.0000   1.0000   1.0000   1.0000   1.0000   1.0000
     1.0000   1.0000   1.0000   1.0000   1.0000   1.0000   1.0000   1.0000
     1.0000   1.0000   1.0000   1.0000   1.0000   1.0000   1.0000   1.0000
     1.0000   1.0000   1.0000   1.0000   1.0000   1.0000   1.0000   1.0000
     1.0000   1.0000   1.0000   1.0000   1.0000   1.0000   1.0000   1.0000
     1.0000   1.0000   1.0000   1.0000   1.0000   1.0000   1.0000   1.0000
     1.0000   1.0000   1.0000   1.0000   1.0000   1.0000   1.0000   1.0000
     1.0000   1.0000   1.0000   1.0000   1.0000   1.0000   1.0000   1.0000
     1.0000   1.0000   1.0000   1.0000   1.0000   1.0000   1.0000   1.0000
     1.0000   1.0000   1.0000   1.0000   1.0000   1.0000   1.0000   1.0000
     1.0000   1.0000   1.0000   1.0000   1.0000   1.0000   1.0000   1.0000
     1.0000   1.0000   1.0000   1.0000   1.0000   1.0000   1.0000   1.0000
     1.0000   1.0000   1.0000   1.0000   1.0000   1.0000   1.0000   1.0000
     1.0000   1.0000   1.0000   1.0000   1.0000   1.0000   1.0000   1.0000
     1.0000   1.0000   1.0000   1.0000   1.0000   1.0000   1.0000   1.0000
     1.0000   1.0000   1.0000   1.0000   1.0000   1.0000   1.0000   1.0000
     1.0000   1.0000   1.0000   1.0000   1.0000   1.0000   1.0000   1.0000
     1.0000   1.0000   1.0000   1.0000   1.0000   1.0000   1.0000   1.0000
     1.0000   1.0000   1.0000   1.0000   1.0000   1.0000   1.0000   1.0000
     1.0000   1.0000   1.0000   1.0000   1.0000   1.0000   1.0000   1.0000
     1.0000   1.0000   1.0000   1.0000   1.0000   1.0000   1.0000   1.0000
     1.0000   1.0000   1.0000   1.0000   1.0000   1.0000   1.0000   1.0000
     1.0000   1.0000   1.0000   1.0000   1.0000   1.0000   1.0000   1.0000
     1.0000   1.0000   1.0000   1.0000   1.0000   1.0000   1.0000   1.0000
     1.0000   1.0000   1.0000   1.0000   1.0000   1.0000   1.0000   1.0000
     1.0000   1.0000   1.0000   1.0000   1.0000   1.0000   1.0000   1.0000
     1.0000   1.0000   1.0000   1.0000   1.0000   1.0000   1.0000   1.0000
     1.0000   1.0000   1.0000   1.0000   1.0000   1.0000   1.0000   1.0000
     1.0000   1.0000   1.0000   1.0000   1.0000   1.0000   1.0000   1.0000
     1.0000   1.0000   1.0000   1.0000   1.0000   1.0000   1.0000   1.0000
     1.0000   1.0000   1.0000   1.0000   1.0000   1.0000   1.0000   1.0000
     1.0000   1.0000   1.0000   1.0000   1.0000   1.0000   1.0000   1.0000
     1.0000   1.0000   1.0000   1.0000   1.0000   1.0000   1.0000   1.0000
     1.0000   1.0000   1.0000   1.0000   1.0000   1.0000   1.0000   1.0000

     highest occupied level (ev):    -3.4289

!    total energy              =   -8371.21847433 Ry
     estimated scf accuracy    <          6.3E-12 Ry

     The total energy is the sum of the following terms:
     one-electron contribution =  -35769.28009804 Ry
     hartree contribution      =   18277.28872387 Ry
     xc contribution           =   -1678.80032465 Ry
     ewald contribution        =   12605.48381801 Ry
     one-center paw contrib.   =   -1805.91059351 Ry
      -> PAW hartree energy AE =     169.90728462 Ry
      -> PAW hartree energy PS =    -169.09474807 Ry
      -> PAW xc energy AE      =    -102.04448160 Ry
      -> PAW xc energy PS      =      44.20640906 Ry
      -> total E_H with PAW    =   18278.10126041 Ry
      -> total E_XC with PAW   =   -1736.63839719 Ry

     convergence has been achieved in  21 iterations
