
     Program PWSCF v.6.8 starts on 30Sep2021 at  0:26: 9 

     This program is part of the open-source Quantum ESPRESSO suite
     for quantum simulation of materials; please cite
         "P. Giannozzi et al., J. Phys.:Condens. Matter 21 395502 (2009);
         "P. Giannozzi et al., J. Phys.:Condens. Matter 29 465901 (2017);
         "P. Giannozzi et al., J. Chem. Phys. 152 154105 (2020);
          URL http://www.quantum-espresso.org", 
     in publications or presentations arising from this work. More details at
     http://www.quantum-espresso.org/quote

     Parallel version (MPI & OpenMP), running on      64 processor cores
     Number of MPI processes:                 8
     Threads/MPI process:                     8

     MPI processes distributed on     2 nodes
     R & G space division:  proc/nbgrp/npool/nimage =       8
     288946 MiB available memory on the printing compute node when the environment starts
 
     Reading input from 006.in

     Current dimensions of program PWSCF are:
     Max number of different atomic species (ntypx) = 10
     Max number of k-points (npk) =  40000
     Max angular momentum in pseudopotentials (lmaxx) =  4
     file O.pbe-n-kjpaw_psl.0.1.UPF: wavefunction(s)  2P renormalized

     gamma-point specific algorithms are used

     Subspace diagonalization in iterative solution of the eigenvalue problem:
     a serial algorithm will be used

 
     Parallelization info
     --------------------
     sticks:   dense  smooth     PW     G-vecs:    dense   smooth      PW
     Min        3074    1535    384               362538   128176   16024
     Max        3075    1538    386               362543   128186   16030
     Sum       24593   12289   3077              2900329  1025437  128203
 
     Using Slab Decomposition
 


     bravais-lattice index     =            1
     lattice parameter (alat)  =      25.3715  a.u.
     unit-cell volume          =   16331.8931 (a.u.)^3
     number of atoms/cell      =           96
     number of atomic types    =            2
     number of electrons       =       256.00
     number of Kohn-Sham states=          128
     kinetic-energy cutoff     =      60.0000  Ry
     charge density cutoff     =     480.0000  Ry
     scf convergence threshold =      1.0E-10
     mixing beta               =       0.7000
     number of iterations used =            8  plain     mixing
     Exchange-correlation= SLA  PW   PBX  PBC
                           (   1   4   3   4   0   0   0)

     GPU acceleration is ACTIVE.


     GPU used by master process:

        Device Number: 0
        Device name: Tesla V100-SXM2-16GB
        Compute capability : 70
        Ratio of single to double precision performance  : 2
        Memory Clock Rate (KHz): 877000
        Memory Bus Width (bits): 4096
        Peak Memory Bandwidth (GB/s): 898.05

     celldm(1)=  25.371463  celldm(2)=   0.000000  celldm(3)=   0.000000
     celldm(4)=   0.000000  celldm(5)=   0.000000  celldm(6)=   0.000000

     crystal axes: (cart. coord. in units of alat)
               a(1) = (   1.000000   0.000000   0.000000 )  
               a(2) = (   0.000000   1.000000   0.000000 )  
               a(3) = (   0.000000   0.000000   1.000000 )  

     reciprocal axes: (cart. coord. in units 2 pi/alat)
               b(1) = (  1.000000  0.000000  0.000000 )  
               b(2) = (  0.000000  1.000000  0.000000 )  
               b(3) = (  0.000000  0.000000  1.000000 )  


     PseudoPot. # 1 for H  read from file:
     ./H.pbe-rrkjus_psl.1.0.0.UPF
     MD5 check sum: f52b6d4d1c606e5624b1dc7b2218f220
     Pseudo is Ultrasoft, Zval =  1.0
     Generated using "atomic" code by A. Dal Corso  v.5.1
     Using radial grid of  929 points,  2 beta functions with: 
                l(1) =   0
                l(2) =   0
     Q(r) pseudized with 0 coefficients 


     PseudoPot. # 2 for O  read from file:
     ./O.pbe-n-kjpaw_psl.0.1.UPF
     MD5 check sum: 0234752ac141de4415c5fc33072bef88
     Pseudo is Projector augmented-wave + core cor, Zval =  6.0
     Generated using "atomic" code by A. Dal Corso  v.5.0.99 svn rev. 10869
     Shape of augmentation charge: BESSEL
     Using radial grid of 1095 points,  4 beta functions with: 
                l(1) =   0
                l(2) =   0
                l(3) =   1
                l(4) =   1
     Q(r) pseudized with 0 coefficients 


     atomic species   valence    mass     pseudopotential
        H              1.00     1.00000     H ( 1.00)
        O              6.00    16.00000     O ( 1.00)

     No symmetry found


                                    s                        frac. trans.

      isym =  1     identity                                     

 cryst.   s( 1) = (     1          0          0      )
                  (     0          1          0      )
                  (     0          0          1      )

 cart.    s( 1) = (  1.0000000  0.0000000  0.0000000 )
                  (  0.0000000  1.0000000  0.0000000 )
                  (  0.0000000  0.0000000  1.0000000 )


     point group C_1 (1)    
     there are  1 classes
     the character table:

       E    
A      1.00

     the symmetry operations in each class and the name of the first element:

     E        1
          identity                                               

   Cartesian axes

     site n.     atom                  positions (alat units)
         1           O   tau(   1) = (  -0.1677126   0.2331491   0.0457977  )
         2           H   tau(   2) = (  -0.1487420   0.2347132  -0.0262416  )
         3           H   tau(   3) = (  -0.2198577   0.1810115   0.0565232  )
         4           O   tau(   4) = (   0.0725004   0.3696753  -0.0871756  )
         5           H   tau(   5) = (   0.1011016   0.3257307  -0.0343081  )
         6           H   tau(   6) = (   0.1268725   0.4103426  -0.1177879  )
         7           O   tau(   7) = (   0.0386854   0.0210234  -0.3209906  )
         8           H   tau(   8) = (   0.1016975   0.0311530  -0.2826546  )
         9           H   tau(   9) = (  -0.0176456   0.0544660  -0.2855147  )
        10           O   tau(  10) = (  -0.0232094   0.0706286   0.0767824  )
        11           H   tau(  11) = (  -0.0593185   0.0067079   0.0641948  )
        12           H   tau(  12) = (  -0.0725466   0.1247028   0.0903381  )
        13           O   tau(  13) = (  -0.0984366  -0.1023790  -0.1819619  )
        14           H   tau(  14) = (  -0.0255854  -0.0923462  -0.1701490  )
        15           H   tau(  15) = (  -0.1269038  -0.0417280  -0.2144958  )
        16           O   tau(  16) = (   0.0462826   0.0206510   0.2632862  )
        17           H   tau(  17) = (   0.0396537   0.0552108   0.1976672  )
        18           H   tau(  18) = (  -0.0015351  -0.0363578   0.2662655  )
        19           O   tau(  19) = (  -0.1530843  -0.1020289   0.0176434  )
        20           H   tau(  20) = (  -0.2199322  -0.0750886   0.0364129  )
        21           H   tau(  21) = (  -0.1438708  -0.0964204  -0.0560867  )
        22           O   tau(  22) = (  -0.2794660  -0.0535260   0.2578489  )
        23           H   tau(  23) = (  -0.3048570  -0.0373559   0.3260003  )
        24           H   tau(  24) = (  -0.2076352  -0.0727648   0.2620944  )
        25           O   tau(  25) = (  -0.2521160   0.1306614  -0.3690243  )
        26           H   tau(  26) = (  -0.3247736   0.1294697  -0.3853359  )
        27           H   tau(  27) = (  -0.2137278   0.1541978  -0.4283346  )
        28           O   tau(  28) = (   0.2862647  -0.3036526   0.0305288  )
        29           H   tau(  29) = (   0.3374341  -0.3065127   0.0845285  )
        30           H   tau(  30) = (   0.2254126  -0.2689140   0.0557783  )
        31           O   tau(  31) = (  -0.1175041   0.1026560  -0.2199106  )
        32           H   tau(  32) = (  -0.1070095   0.1678281  -0.1854700  )
        33           H   tau(  33) = (  -0.1642865   0.1120408  -0.2770982  )
        34           O   tau(  34) = (   0.3454782   0.2249561   0.1286966  )
        35           H   tau(  35) = (   0.3002674   0.2802964   0.1077670  )
        36           H   tau(  36) = (   0.4075220   0.2534083   0.1584150  )
        37           O   tau(  37) = (   0.2809765  -0.1086578  -0.0161344  )
        38           H   tau(  38) = (   0.2152086  -0.0917503  -0.0467317  )
        39           H   tau(  39) = (   0.2981074  -0.1794607  -0.0316565  )
        40           O   tau(  40) = (  -0.0714293  -0.2565649   0.1133532  )
        41           H   tau(  41) = (  -0.0955169  -0.1996231   0.0718665  )
        42           H   tau(  42) = (  -0.0358789  -0.3056041   0.0700045  )
        43           O   tau(  43) = (   0.2059727   0.0711500  -0.2028542  )
        44           H   tau(  44) = (   0.2764330   0.0577432  -0.2228080  )
        45           H   tau(  45) = (   0.2042596   0.0952823  -0.1324088  )
        46           O   tau(  46) = (  -0.2903627   0.0821734   0.1114911  )
        47           H   tau(  47) = (  -0.2962021   0.0398674   0.1724922  )
        48           H   tau(  48) = (  -0.3584098   0.1005705   0.0874333  )
        49           O   tau(  49) = (  -0.3610539  -0.2024237  -0.0920095  )
        50           H   tau(  50) = (  -0.3709824  -0.1869313  -0.0198361  )
        51           H   tau(  51) = (  -0.3379793  -0.1411917  -0.1275898  )
        52           O   tau(  52) = (  -0.0939081  -0.1239565   0.2767675  )
        53           H   tau(  53) = (  -0.0875771  -0.1805258   0.2287264  )
        54           H   tau(  54) = (  -0.0797564  -0.1482452   0.3457381  )
        55           O   tau(  55) = (   0.3316245   0.0110428   0.1304097  )
        56           H   tau(  56) = (   0.3197818   0.0837375   0.1192373  )
        57           H   tau(  57) = (   0.3039170  -0.0276955   0.0732072  )
        58           O   tau(  58) = (   0.1715619   0.3108342   0.0854223  )
        59           H   tau(  59) = (   0.1215098   0.2814137   0.1320483  )
        60           H   tau(  60) = (   0.1551758   0.3824117   0.0732817  )
        61           O   tau(  61) = (  -0.3729264  -0.1628288   0.1188649  )
        62           H   tau(  62) = (  -0.4434910  -0.1834604   0.1307821  )
        63           H   tau(  63) = (  -0.3536653  -0.1104975   0.1682467  )
        64           O   tau(  64) = (  -0.1055720   0.2878936  -0.1457485  )
        65           H   tau(  65) = (  -0.1287435   0.3237941  -0.2067421  )
        66           H   tau(  66) = (  -0.0392604   0.3146328  -0.1248860  )
        67           O   tau(  67) = (   0.2479063  -0.1710740  -0.2814926  )
        68           H   tau(  68) = (   0.2800082  -0.1304663  -0.3350678  )
        69           H   tau(  69) = (   0.2991502  -0.2142812  -0.2490407  )
        70           O   tau(  70) = (  -0.3348212   0.0081826  -0.1456666  )
        71           H   tau(  71) = (  -0.2670349   0.0389736  -0.1439163  )
        72           H   tau(  72) = (  -0.3830411   0.0559556  -0.1762714  )
        73           O   tau(  73) = (  -0.0461724  -0.3937688  -0.0327067  )
        74           H   tau(  74) = (  -0.0901691  -0.4212975  -0.0861254  )
        75           H   tau(  75) = (   0.0245337  -0.3940146  -0.0561910  )
        76           O   tau(  76) = (   0.1664226   0.1239580  -0.0176240  )
        77           H   tau(  77) = (   0.1898846   0.1849590   0.0180903  )
        78           H   tau(  78) = (   0.1065388   0.0963250   0.0170475  )
        79           O   tau(  79) = (  -0.0742447  -0.2909757  -0.2680635  )
        80           H   tau(  80) = (  -0.0810599  -0.2193609  -0.2487651  )
        81           H   tau(  81) = (  -0.0021309  -0.3096633  -0.2691062  )
        82           O   tau(  82) = (   0.2546097  -0.0631789   0.3136362  )
        83           H   tau(  83) = (   0.3021295  -0.0523268   0.2572531  )
        84           H   tau(  84) = (   0.1846708  -0.0584120   0.2883867  )
        85           O   tau(  85) = (   0.2239975   0.1559854   0.3227976  )
        86           H   tau(  86) = (   0.2573656   0.1734888   0.2585938  )
        87           H   tau(  87) = (   0.1901080   0.0899940   0.3160197  )
        88           O   tau(  88) = (   0.1273939  -0.1817399   0.1421779  )
        89           H   tau(  89) = (   0.0546991  -0.1854119   0.1263876  )
        90           H   tau(  90) = (   0.1389386  -0.2050752   0.2119678  )
        91           O   tau(  91) = (   0.1146574  -0.1169850  -0.1401549  )
        92           H   tau(  92) = (   0.1324587  -0.0486325  -0.1637956  )
        93           H   tau(  93) = (   0.1562930  -0.1672754  -0.1760331  )
        94           O   tau(  94) = (  -0.0104953   0.2521421   0.1568509  )
        95           H   tau(  95) = (  -0.0361172   0.2396291   0.2256726  )
        96           H   tau(  96) = (  -0.0677126   0.2656234   0.1111187  )

   Crystallographic axes

     site n.     atom                  positions (cryst. coord.)
         1           O   tau(   1) = ( -0.1677126  0.2331491  0.0457977  )
         2           H   tau(   2) = ( -0.1487420  0.2347132 -0.0262416  )
         3           H   tau(   3) = ( -0.2198577  0.1810115  0.0565232  )
         4           O   tau(   4) = (  0.0725004  0.3696753 -0.0871756  )
         5           H   tau(   5) = (  0.1011016  0.3257307 -0.0343081  )
         6           H   tau(   6) = (  0.1268725  0.4103426 -0.1177879  )
         7           O   tau(   7) = (  0.0386854  0.0210234 -0.3209906  )
         8           H   tau(   8) = (  0.1016975  0.0311530 -0.2826546  )
         9           H   tau(   9) = ( -0.0176456  0.0544660 -0.2855147  )
        10           O   tau(  10) = ( -0.0232094  0.0706286  0.0767824  )
        11           H   tau(  11) = ( -0.0593185  0.0067079  0.0641948  )
        12           H   tau(  12) = ( -0.0725466  0.1247028  0.0903381  )
        13           O   tau(  13) = ( -0.0984366 -0.1023790 -0.1819619  )
        14           H   tau(  14) = ( -0.0255854 -0.0923462 -0.1701490  )
        15           H   tau(  15) = ( -0.1269038 -0.0417280 -0.2144958  )
        16           O   tau(  16) = (  0.0462826  0.0206510  0.2632862  )
        17           H   tau(  17) = (  0.0396537  0.0552108  0.1976672  )
        18           H   tau(  18) = ( -0.0015351 -0.0363578  0.2662655  )
        19           O   tau(  19) = ( -0.1530843 -0.1020289  0.0176434  )
        20           H   tau(  20) = ( -0.2199322 -0.0750886  0.0364129  )
        21           H   tau(  21) = ( -0.1438708 -0.0964204 -0.0560867  )
        22           O   tau(  22) = ( -0.2794660 -0.0535260  0.2578489  )
        23           H   tau(  23) = ( -0.3048570 -0.0373559  0.3260003  )
        24           H   tau(  24) = ( -0.2076352 -0.0727648  0.2620944  )
        25           O   tau(  25) = ( -0.2521160  0.1306614 -0.3690243  )
        26           H   tau(  26) = ( -0.3247736  0.1294697 -0.3853359  )
        27           H   tau(  27) = ( -0.2137278  0.1541978 -0.4283346  )
        28           O   tau(  28) = (  0.2862647 -0.3036526  0.0305288  )
        29           H   tau(  29) = (  0.3374341 -0.3065127  0.0845285  )
        30           H   tau(  30) = (  0.2254126 -0.2689140  0.0557783  )
        31           O   tau(  31) = ( -0.1175041  0.1026560 -0.2199106  )
        32           H   tau(  32) = ( -0.1070095  0.1678281 -0.1854700  )
        33           H   tau(  33) = ( -0.1642865  0.1120408 -0.2770982  )
        34           O   tau(  34) = (  0.3454782  0.2249561  0.1286966  )
        35           H   tau(  35) = (  0.3002674  0.2802964  0.1077670  )
        36           H   tau(  36) = (  0.4075220  0.2534083  0.1584150  )
        37           O   tau(  37) = (  0.2809765 -0.1086578 -0.0161344  )
        38           H   tau(  38) = (  0.2152086 -0.0917503 -0.0467317  )
        39           H   tau(  39) = (  0.2981074 -0.1794607 -0.0316565  )
        40           O   tau(  40) = ( -0.0714293 -0.2565649  0.1133532  )
        41           H   tau(  41) = ( -0.0955169 -0.1996231  0.0718665  )
        42           H   tau(  42) = ( -0.0358789 -0.3056041  0.0700045  )
        43           O   tau(  43) = (  0.2059727  0.0711500 -0.2028542  )
        44           H   tau(  44) = (  0.2764330  0.0577432 -0.2228080  )
        45           H   tau(  45) = (  0.2042596  0.0952823 -0.1324088  )
        46           O   tau(  46) = ( -0.2903627  0.0821734  0.1114911  )
        47           H   tau(  47) = ( -0.2962021  0.0398674  0.1724922  )
        48           H   tau(  48) = ( -0.3584098  0.1005705  0.0874333  )
        49           O   tau(  49) = ( -0.3610539 -0.2024237 -0.0920095  )
        50           H   tau(  50) = ( -0.3709824 -0.1869313 -0.0198361  )
        51           H   tau(  51) = ( -0.3379793 -0.1411917 -0.1275898  )
        52           O   tau(  52) = ( -0.0939081 -0.1239565  0.2767675  )
        53           H   tau(  53) = ( -0.0875771 -0.1805258  0.2287264  )
        54           H   tau(  54) = ( -0.0797564 -0.1482452  0.3457381  )
        55           O   tau(  55) = (  0.3316245  0.0110428  0.1304097  )
        56           H   tau(  56) = (  0.3197818  0.0837375  0.1192373  )
        57           H   tau(  57) = (  0.3039170 -0.0276955  0.0732072  )
        58           O   tau(  58) = (  0.1715619  0.3108342  0.0854223  )
        59           H   tau(  59) = (  0.1215098  0.2814137  0.1320483  )
        60           H   tau(  60) = (  0.1551758  0.3824117  0.0732817  )
        61           O   tau(  61) = ( -0.3729264 -0.1628288  0.1188649  )
        62           H   tau(  62) = ( -0.4434910 -0.1834604  0.1307821  )
        63           H   tau(  63) = ( -0.3536653 -0.1104975  0.1682467  )
        64           O   tau(  64) = ( -0.1055720  0.2878936 -0.1457485  )
        65           H   tau(  65) = ( -0.1287435  0.3237941 -0.2067421  )
        66           H   tau(  66) = ( -0.0392604  0.3146328 -0.1248860  )
        67           O   tau(  67) = (  0.2479063 -0.1710740 -0.2814926  )
        68           H   tau(  68) = (  0.2800082 -0.1304663 -0.3350678  )
        69           H   tau(  69) = (  0.2991502 -0.2142812 -0.2490407  )
        70           O   tau(  70) = ( -0.3348212  0.0081826 -0.1456666  )
        71           H   tau(  71) = ( -0.2670349  0.0389736 -0.1439163  )
        72           H   tau(  72) = ( -0.3830411  0.0559556 -0.1762714  )
        73           O   tau(  73) = ( -0.0461724 -0.3937688 -0.0327067  )
        74           H   tau(  74) = ( -0.0901691 -0.4212975 -0.0861254  )
        75           H   tau(  75) = (  0.0245337 -0.3940146 -0.0561910  )
        76           O   tau(  76) = (  0.1664226  0.1239580 -0.0176240  )
        77           H   tau(  77) = (  0.1898846  0.1849590  0.0180903  )
        78           H   tau(  78) = (  0.1065388  0.0963250  0.0170475  )
        79           O   tau(  79) = ( -0.0742447 -0.2909757 -0.2680635  )
        80           H   tau(  80) = ( -0.0810599 -0.2193609 -0.2487651  )
        81           H   tau(  81) = ( -0.0021309 -0.3096633 -0.2691062  )
        82           O   tau(  82) = (  0.2546097 -0.0631789  0.3136362  )
        83           H   tau(  83) = (  0.3021295 -0.0523268  0.2572531  )
        84           H   tau(  84) = (  0.1846708 -0.0584120  0.2883867  )
        85           O   tau(  85) = (  0.2239975  0.1559854  0.3227976  )
        86           H   tau(  86) = (  0.2573656  0.1734888  0.2585938  )
        87           H   tau(  87) = (  0.1901080  0.0899940  0.3160197  )
        88           O   tau(  88) = (  0.1273939 -0.1817399  0.1421779  )
        89           H   tau(  89) = (  0.0546991 -0.1854119  0.1263876  )
        90           H   tau(  90) = (  0.1389386 -0.2050752  0.2119678  )
        91           O   tau(  91) = (  0.1146574 -0.1169850 -0.1401549  )
        92           H   tau(  92) = (  0.1324587 -0.0486325 -0.1637956  )
        93           H   tau(  93) = (  0.1562930 -0.1672754 -0.1760331  )
        94           O   tau(  94) = ( -0.0104953  0.2521421  0.1568509  )
        95           H   tau(  95) = ( -0.0361172  0.2396291  0.2256726  )
        96           H   tau(  96) = ( -0.0677126  0.2656234  0.1111187  )

     number of k points=     1
                       cart. coord. in units 2pi/alat
        k(    1) = (   0.0000000   0.0000000   0.0000000), wk =   2.0000000

                       cryst. coord.
        k(    1) = (   0.0000000   0.0000000   0.0000000), wk =   2.0000000

     Dense  grid:  1450165 G-vectors     FFT dimensions: ( 180, 180, 180)

     Smooth grid:   512719 G-vectors     FFT dimensions: ( 125, 125, 125)

     Dynamical RAM for                 wfc:      15.65 MB

     Dynamical RAM for     wfc (w. buffer):      15.65 MB

     Dynamical RAM for           str. fact:       5.53 MB

     Dynamical RAM for           local pot:       0.00 MB

     Dynamical RAM for          nlocal pot:      46.94 MB

     Dynamical RAM for                qrad:       1.00 MB

     Dynamical RAM for          rho,v,vnew:      25.35 MB

     Dynamical RAM for               rhoin:       8.45 MB

     Dynamical RAM for            rho*nmix:      44.26 MB

     Dynamical RAM for           G-vectors:      10.86 MB

     Dynamical RAM for          h,s,v(r/c):       1.50 MB

     Dynamical RAM for          <psi|beta>:       0.38 MB

     Dynamical RAM for                 psi:      31.29 MB

     Dynamical RAM for                hpsi:      31.29 MB

     Dynamical RAM for                spsi:      31.29 MB

     Dynamical RAM for      wfcinit/wfcrot:      47.78 MB

     Dynamical RAM for           addusdens:     295.96 MB

     Dynamical RAM for          addusforce:     645.91 MB

     Estimated static dynamical RAM per process >     150.51 MB

     Estimated max dynamical RAM per process >     840.68 MB

     Estimated total dynamical RAM >       6.57 GB

     Initial potential from superposition of free atoms

     starting charge  255.99934, renormalised to  256.00000

     negative rho (up, down):  2.364E-04 0.000E+00
     Starting wfcs are  192 randomized atomic wfcs
     Checking if some PAW data can be deallocated... 

     total cpu time spent up to now is        8.3 secs

     per-process dynamical memory:   831.8 Mb

     Self-consistent Calculation
[tb_dev] Currently allocated     6.34E+01 Mbytes, locked:    0 /  10
[tb_pin] Currently allocated     0.00E+00 Mbytes, locked:    0 /   0

     iteration #  1     ecut=    60.00 Ry     beta= 0.70
     Davidson diagonalization with overlap

---- Real-time Memory Report at c_bands before calling an iterative solver
          1407 MiB given to the printing process from OS
           820 MiB allocation reported by mallinfo(arena+hblkhd)
        283769 MiB available memory on the node where the printing process lives
     GPU memory used/free/total (MiB): 940 / 15220 / 16160
------------------
     ethr =  1.00E-02,  avg # of iterations =  2.0

     negative rho (up, down):  8.538E-04 0.000E+00

     total cpu time spent up to now is        9.0 secs

     total energy              =   -1404.31954730 Ry
     estimated scf accuracy    <      12.27019087 Ry
[tb_dev] Currently allocated     3.57E+02 Mbytes, locked:    0 /  15
[tb_pin] Currently allocated     2.77E+00 Mbytes, locked:    0 /   1

     iteration #  2     ecut=    60.00 Ry     beta= 0.70
     Davidson diagonalization with overlap

---- Real-time Memory Report at c_bands before calling an iterative solver
          1533 MiB given to the printing process from OS
           932 MiB allocation reported by mallinfo(arena+hblkhd)
        282271 MiB available memory on the node where the printing process lives
     GPU memory used/free/total (MiB): 1242 / 14918 / 16160
------------------
     ethr =  4.79E-03,  avg # of iterations =  3.0

     negative rho (up, down):  8.031E-04 0.000E+00

     total cpu time spent up to now is        9.7 secs

     total energy              =   -1408.06506966 Ry
     estimated scf accuracy    <       9.79179921 Ry
[tb_dev] Currently allocated     3.57E+02 Mbytes, locked:    0 /  15
[tb_pin] Currently allocated     2.77E+00 Mbytes, locked:    0 /   1

     iteration #  3     ecut=    60.00 Ry     beta= 0.70
     Davidson diagonalization with overlap

---- Real-time Memory Report at c_bands before calling an iterative solver
          1544 MiB given to the printing process from OS
           915 MiB allocation reported by mallinfo(arena+hblkhd)
        282242 MiB available memory on the node where the printing process lives
     GPU memory used/free/total (MiB): 1242 / 14918 / 16160
------------------
     ethr =  3.82E-03,  avg # of iterations =  2.0

     negative rho (up, down):  6.876E-04 0.000E+00

     total cpu time spent up to now is       10.3 secs

     total energy              =   -1409.46034519 Ry
     estimated scf accuracy    <       0.35249072 Ry
[tb_dev] Currently allocated     3.57E+02 Mbytes, locked:    0 /  15
[tb_pin] Currently allocated     2.77E+00 Mbytes, locked:    0 /   1

     iteration #  4     ecut=    60.00 Ry     beta= 0.70
     Davidson diagonalization with overlap

---- Real-time Memory Report at c_bands before calling an iterative solver
          1544 MiB given to the printing process from OS
           924 MiB allocation reported by mallinfo(arena+hblkhd)
        282281 MiB available memory on the node where the printing process lives
     GPU memory used/free/total (MiB): 1242 / 14918 / 16160
------------------
     ethr =  1.38E-04,  avg # of iterations =  4.0

     negative rho (up, down):  9.080E-04 0.000E+00

     total cpu time spent up to now is       11.0 secs

     total energy              =   -1409.77301458 Ry
     estimated scf accuracy    <       0.47087884 Ry
[tb_dev] Currently allocated     3.57E+02 Mbytes, locked:    0 /  15
[tb_pin] Currently allocated     2.77E+00 Mbytes, locked:    0 /   1

     iteration #  5     ecut=    60.00 Ry     beta= 0.70
     Davidson diagonalization with overlap

---- Real-time Memory Report at c_bands before calling an iterative solver
          1544 MiB given to the printing process from OS
           927 MiB allocation reported by mallinfo(arena+hblkhd)
        282284 MiB available memory on the node where the printing process lives
     GPU memory used/free/total (MiB): 1242 / 14918 / 16160
------------------
     ethr =  1.38E-04,  avg # of iterations =  2.0

     negative rho (up, down):  9.622E-04 0.000E+00

     total cpu time spent up to now is       11.5 secs

     total energy              =   -1409.78341902 Ry
     estimated scf accuracy    <       0.10797703 Ry
[tb_dev] Currently allocated     3.57E+02 Mbytes, locked:    0 /  15
[tb_pin] Currently allocated     2.77E+00 Mbytes, locked:    0 /   1

     iteration #  6     ecut=    60.00 Ry     beta= 0.70
     Davidson diagonalization with overlap

---- Real-time Memory Report at c_bands before calling an iterative solver
          1544 MiB given to the printing process from OS
           889 MiB allocation reported by mallinfo(arena+hblkhd)
        282295 MiB available memory on the node where the printing process lives
     GPU memory used/free/total (MiB): 1242 / 14918 / 16160
------------------
     ethr =  4.22E-05,  avg # of iterations =  2.0

     negative rho (up, down):  9.947E-04 0.000E+00

     total cpu time spent up to now is       12.1 secs

     total energy              =   -1409.77794334 Ry
     estimated scf accuracy    <       0.04671743 Ry
[tb_dev] Currently allocated     3.57E+02 Mbytes, locked:    0 /  15
[tb_pin] Currently allocated     2.77E+00 Mbytes, locked:    0 /   1

     iteration #  7     ecut=    60.00 Ry     beta= 0.70
     Davidson diagonalization with overlap

---- Real-time Memory Report at c_bands before calling an iterative solver
          1558 MiB given to the printing process from OS
           892 MiB allocation reported by mallinfo(arena+hblkhd)
        282275 MiB available memory on the node where the printing process lives
     GPU memory used/free/total (MiB): 1242 / 14918 / 16160
------------------
     ethr =  1.82E-05,  avg # of iterations =  2.0

     negative rho (up, down):  1.022E-03 0.000E+00

     total cpu time spent up to now is       12.7 secs

     total energy              =   -1409.77612210 Ry
     estimated scf accuracy    <       0.01424522 Ry
[tb_dev] Currently allocated     3.57E+02 Mbytes, locked:    0 /  15
[tb_pin] Currently allocated     2.77E+00 Mbytes, locked:    0 /   1

     iteration #  8     ecut=    60.00 Ry     beta= 0.70
     Davidson diagonalization with overlap

---- Real-time Memory Report at c_bands before calling an iterative solver
          1558 MiB given to the printing process from OS
           895 MiB allocation reported by mallinfo(arena+hblkhd)
        282166 MiB available memory on the node where the printing process lives
     GPU memory used/free/total (MiB): 1242 / 14918 / 16160
------------------
     ethr =  5.56E-06,  avg # of iterations =  3.0

     negative rho (up, down):  1.015E-03 0.000E+00

     total cpu time spent up to now is       13.3 secs

     total energy              =   -1409.77934696 Ry
     estimated scf accuracy    <       0.00039115 Ry
[tb_dev] Currently allocated     3.57E+02 Mbytes, locked:    0 /  15
[tb_pin] Currently allocated     2.77E+00 Mbytes, locked:    0 /   1

     iteration #  9     ecut=    60.00 Ry     beta= 0.70
     Davidson diagonalization with overlap

---- Real-time Memory Report at c_bands before calling an iterative solver
          1571 MiB given to the printing process from OS
           955 MiB allocation reported by mallinfo(arena+hblkhd)
        282095 MiB available memory on the node where the printing process lives
     GPU memory used/free/total (MiB): 1242 / 14918 / 16160
------------------
     ethr =  1.53E-07,  avg # of iterations =  5.0

     negative rho (up, down):  1.001E-03 0.000E+00

     total cpu time spent up to now is       14.0 secs

     total energy              =   -1409.77988512 Ry
     estimated scf accuracy    <       0.00060340 Ry
[tb_dev] Currently allocated     3.57E+02 Mbytes, locked:    0 /  15
[tb_pin] Currently allocated     2.77E+00 Mbytes, locked:    0 /   1

     iteration # 10     ecut=    60.00 Ry     beta= 0.70
     Davidson diagonalization with overlap

---- Real-time Memory Report at c_bands before calling an iterative solver
          1579 MiB given to the printing process from OS
           912 MiB allocation reported by mallinfo(arena+hblkhd)
        282226 MiB available memory on the node where the printing process lives
     GPU memory used/free/total (MiB): 1242 / 14918 / 16160
------------------
     ethr =  1.53E-07,  avg # of iterations =  2.0

     negative rho (up, down):  9.841E-04 0.000E+00

     total cpu time spent up to now is       14.6 secs

     total energy              =   -1409.77968617 Ry
     estimated scf accuracy    <       0.00043897 Ry
[tb_dev] Currently allocated     3.57E+02 Mbytes, locked:    0 /  15
[tb_pin] Currently allocated     2.77E+00 Mbytes, locked:    0 /   1

     iteration # 11     ecut=    60.00 Ry     beta= 0.70
     Davidson diagonalization with overlap

---- Real-time Memory Report at c_bands before calling an iterative solver
          1579 MiB given to the printing process from OS
           915 MiB allocation reported by mallinfo(arena+hblkhd)
        282215 MiB available memory on the node where the printing process lives
     GPU memory used/free/total (MiB): 1242 / 14918 / 16160
------------------
     ethr =  1.53E-07,  avg # of iterations =  2.0

     negative rho (up, down):  9.808E-04 0.000E+00

     total cpu time spent up to now is       15.2 secs

     total energy              =   -1409.77975579 Ry
     estimated scf accuracy    <       0.00001231 Ry
[tb_dev] Currently allocated     3.57E+02 Mbytes, locked:    0 /  15
[tb_pin] Currently allocated     2.77E+00 Mbytes, locked:    0 /   1

     iteration # 12     ecut=    60.00 Ry     beta= 0.70
     Davidson diagonalization with overlap

---- Real-time Memory Report at c_bands before calling an iterative solver
          1587 MiB given to the printing process from OS
           918 MiB allocation reported by mallinfo(arena+hblkhd)
        282178 MiB available memory on the node where the printing process lives
     GPU memory used/free/total (MiB): 1242 / 14918 / 16160
------------------
     ethr =  4.81E-09,  avg # of iterations =  4.0

     negative rho (up, down):  9.810E-04 0.000E+00

     total cpu time spent up to now is       15.8 secs

     total energy              =   -1409.77976533 Ry
     estimated scf accuracy    <       0.00000668 Ry
[tb_dev] Currently allocated     3.57E+02 Mbytes, locked:    0 /  15
[tb_pin] Currently allocated     2.77E+00 Mbytes, locked:    0 /   1

     iteration # 13     ecut=    60.00 Ry     beta= 0.70
     Davidson diagonalization with overlap

---- Real-time Memory Report at c_bands before calling an iterative solver
          1587 MiB given to the printing process from OS
           921 MiB allocation reported by mallinfo(arena+hblkhd)
        282179 MiB available memory on the node where the printing process lives
     GPU memory used/free/total (MiB): 1242 / 14918 / 16160
------------------
     ethr =  2.61E-09,  avg # of iterations =  2.0

     negative rho (up, down):  9.824E-04 0.000E+00

     total cpu time spent up to now is       16.4 secs

     total energy              =   -1409.77976357 Ry
     estimated scf accuracy    <       0.00000445 Ry
[tb_dev] Currently allocated     3.57E+02 Mbytes, locked:    0 /  15
[tb_pin] Currently allocated     2.77E+00 Mbytes, locked:    0 /   1

     iteration # 14     ecut=    60.00 Ry     beta= 0.70
     Davidson diagonalization with overlap

---- Real-time Memory Report at c_bands before calling an iterative solver
          1587 MiB given to the printing process from OS
           923 MiB allocation reported by mallinfo(arena+hblkhd)
        282164 MiB available memory on the node where the printing process lives
     GPU memory used/free/total (MiB): 1242 / 14918 / 16160
------------------
     ethr =  1.74E-09,  avg # of iterations =  2.0

     negative rho (up, down):  9.829E-04 0.000E+00

     total cpu time spent up to now is       17.0 secs

     total energy              =   -1409.77976401 Ry
     estimated scf accuracy    <       0.00000026 Ry
[tb_dev] Currently allocated     3.57E+02 Mbytes, locked:    0 /  15
[tb_pin] Currently allocated     2.77E+00 Mbytes, locked:    0 /   1

     iteration # 15     ecut=    60.00 Ry     beta= 0.70
     Davidson diagonalization with overlap

---- Real-time Memory Report at c_bands before calling an iterative solver
          1591 MiB given to the printing process from OS
           926 MiB allocation reported by mallinfo(arena+hblkhd)
        282166 MiB available memory on the node where the printing process lives
     GPU memory used/free/total (MiB): 1242 / 14918 / 16160
------------------
     ethr =  1.03E-10,  avg # of iterations =  3.0

     negative rho (up, down):  9.826E-04 0.000E+00

     total cpu time spent up to now is       17.6 secs

     total energy              =   -1409.77976415 Ry
     estimated scf accuracy    <       0.00000010 Ry
[tb_dev] Currently allocated     3.57E+02 Mbytes, locked:    0 /  15
[tb_pin] Currently allocated     2.77E+00 Mbytes, locked:    0 /   1

     iteration # 16     ecut=    60.00 Ry     beta= 0.70
     Davidson diagonalization with overlap

---- Real-time Memory Report at c_bands before calling an iterative solver
          1591 MiB given to the printing process from OS
           929 MiB allocation reported by mallinfo(arena+hblkhd)
        282158 MiB available memory on the node where the printing process lives
     GPU memory used/free/total (MiB): 1242 / 14918 / 16160
------------------
     ethr =  4.08E-11,  avg # of iterations =  2.0

     negative rho (up, down):  9.825E-04 0.000E+00

     total cpu time spent up to now is       18.2 secs

     total energy              =   -1409.77976416 Ry
     estimated scf accuracy    <       0.00000003 Ry
[tb_dev] Currently allocated     3.57E+02 Mbytes, locked:    0 /  15
[tb_pin] Currently allocated     2.77E+00 Mbytes, locked:    0 /   1

     iteration # 17     ecut=    60.00 Ry     beta= 0.70
     Davidson diagonalization with overlap

---- Real-time Memory Report at c_bands before calling an iterative solver
          1596 MiB given to the printing process from OS
           932 MiB allocation reported by mallinfo(arena+hblkhd)
        282127 MiB available memory on the node where the printing process lives
     GPU memory used/free/total (MiB): 1242 / 14918 / 16160
------------------
     ethr =  1.04E-11,  avg # of iterations =  3.0

     negative rho (up, down):  9.825E-04 0.000E+00

     total cpu time spent up to now is       18.8 secs

     total energy              =   -1409.77976416 Ry
     estimated scf accuracy    <          1.4E-09 Ry
[tb_dev] Currently allocated     3.57E+02 Mbytes, locked:    0 /  15
[tb_pin] Currently allocated     2.77E+00 Mbytes, locked:    0 /   1

     iteration # 18     ecut=    60.00 Ry     beta= 0.70
     Davidson diagonalization with overlap

---- Real-time Memory Report at c_bands before calling an iterative solver
          1598 MiB given to the printing process from OS
           935 MiB allocation reported by mallinfo(arena+hblkhd)
        282140 MiB available memory on the node where the printing process lives
     GPU memory used/free/total (MiB): 1242 / 14918 / 16160
------------------
     ethr =  5.47E-13,  avg # of iterations =  4.0

     negative rho (up, down):  9.825E-04 0.000E+00

     total cpu time spent up to now is       19.4 secs

     total energy              =   -1409.77976416 Ry
     estimated scf accuracy    <          6.6E-10 Ry
[tb_dev] Currently allocated     3.57E+02 Mbytes, locked:    0 /  15
[tb_pin] Currently allocated     2.77E+00 Mbytes, locked:    0 /   1

     iteration # 19     ecut=    60.00 Ry     beta= 0.70
     Davidson diagonalization with overlap

---- Real-time Memory Report at c_bands before calling an iterative solver
          1598 MiB given to the printing process from OS
           937 MiB allocation reported by mallinfo(arena+hblkhd)
        282119 MiB available memory on the node where the printing process lives
     GPU memory used/free/total (MiB): 1242 / 14918 / 16160
------------------
     ethr =  2.57E-13,  avg # of iterations =  3.0

     negative rho (up, down):  9.825E-04 0.000E+00

     total cpu time spent up to now is       20.0 secs

     total energy              =   -1409.77976416 Ry
     estimated scf accuracy    <          2.3E-10 Ry
[tb_dev] Currently allocated     3.57E+02 Mbytes, locked:    0 /  15
[tb_pin] Currently allocated     2.77E+00 Mbytes, locked:    0 /   1

     iteration # 20     ecut=    60.00 Ry     beta= 0.70
     Davidson diagonalization with overlap

---- Real-time Memory Report at c_bands before calling an iterative solver
          1601 MiB given to the printing process from OS
           941 MiB allocation reported by mallinfo(arena+hblkhd)
        282147 MiB available memory on the node where the printing process lives
     GPU memory used/free/total (MiB): 1242 / 14918 / 16160
------------------
     ethr =  1.00E-13,  avg # of iterations =  2.0

     negative rho (up, down):  9.825E-04 0.000E+00

     total cpu time spent up to now is       20.5 secs

     End of self-consistent calculation

          k = 0.0000 0.0000 0.0000 ( 64102 PWs)   bands (ev):

   -24.9188 -24.8618 -24.7738 -24.6272 -24.3786 -24.2605 -23.9456 -23.8848
   -23.7694 -23.6709 -23.6646 -23.6423 -23.5684 -23.5348 -23.5060 -23.4296
   -23.3049 -23.2491 -23.1449 -23.0874 -22.9995 -22.9859 -22.9207 -22.6528
   -22.3896 -22.1919 -22.0009 -21.6453 -21.6375 -21.5360 -21.4619 -21.3313
   -13.0422 -12.9457 -12.8230 -12.7203 -12.5319 -12.3694 -12.2648 -12.1518
   -12.0591 -11.9814 -11.9124 -11.8849 -11.8228 -11.6817 -11.6578 -11.5367
   -11.5237 -11.4201 -11.3850 -11.3487 -11.2232 -11.1742 -11.1520 -10.9721
   -10.6515 -10.5651 -10.4601 -10.3237 -10.1126  -9.9058  -9.8671  -9.6893
    -9.5365  -9.3620  -9.2771  -9.2274  -8.8261  -8.6349  -8.5779  -8.4792
    -8.4362  -8.2075  -8.1904  -8.0552  -8.0326  -7.9473  -7.7995  -7.7500
    -7.6729  -7.4462  -7.3548  -7.3029  -7.1940  -7.1441  -7.1304  -7.0920
    -7.0536  -6.9237  -6.8911  -6.8544  -6.7471  -6.6839  -6.6049  -6.5320
    -6.4091  -6.2870  -6.2376  -6.1685  -6.1228  -6.0104  -5.9993  -5.9671
    -5.8693  -5.8219  -5.8087  -5.7386  -5.7128  -5.6735  -5.5911  -5.5635
    -5.5322  -5.4566  -5.3944  -5.3602  -5.2018  -5.1542  -5.1322  -5.0208
    -4.6499  -4.5636  -4.4399  -4.1594  -4.0361  -3.9242  -3.8858  -3.5992

     occupation numbers 
     1.0000   1.0000   1.0000   1.0000   1.0000   1.0000   1.0000   1.0000
     1.0000   1.0000   1.0000   1.0000   1.0000   1.0000   1.0000   1.0000
     1.0000   1.0000   1.0000   1.0000   1.0000   1.0000   1.0000   1.0000
     1.0000   1.0000   1.0000   1.0000   1.0000   1.0000   1.0000   1.0000
     1.0000   1.0000   1.0000   1.0000   1.0000   1.0000   1.0000   1.0000
     1.0000   1.0000   1.0000   1.0000   1.0000   1.0000   1.0000   1.0000
     1.0000   1.0000   1.0000   1.0000   1.0000   1.0000   1.0000   1.0000
     1.0000   1.0000   1.0000   1.0000   1.0000   1.0000   1.0000   1.0000
     1.0000   1.0000   1.0000   1.0000   1.0000   1.0000   1.0000   1.0000
     1.0000   1.0000   1.0000   1.0000   1.0000   1.0000   1.0000   1.0000
     1.0000   1.0000   1.0000   1.0000   1.0000   1.0000   1.0000   1.0000
     1.0000   1.0000   1.0000   1.0000   1.0000   1.0000   1.0000   1.0000
     1.0000   1.0000   1.0000   1.0000   1.0000   1.0000   1.0000   1.0000
     1.0000   1.0000   1.0000   1.0000   1.0000   1.0000   1.0000   1.0000
     1.0000   1.0000   1.0000   1.0000   1.0000   1.0000   1.0000   1.0000
     1.0000   1.0000   1.0000   1.0000   1.0000   1.0000   1.0000   1.0000

     highest occupied level (ev):    -3.5992

!    total energy              =   -1409.77976416 Ry
     estimated scf accuracy    <          6.8E-12 Ry

     The total energy is the sum of the following terms:
     one-electron contribution =   -2829.58510194 Ry
     hartree contribution      =    1481.10418445 Ry
     xc contribution           =    -282.70852861 Ry
     ewald contribution        =     525.58146388 Ry
     one-center paw contrib.   =    -304.17178194 Ry
      -> PAW hartree energy AE =     113.49981630 Ry
      -> PAW hartree energy PS =    -112.95938164 Ry
      -> PAW xc energy AE      =     -68.06683861 Ry
      -> PAW xc energy PS      =      29.50666377 Ry
      -> total E_H with PAW    =    1481.64461912 Ry
      -> total E_XC with PAW   =    -321.26870345 Ry

     convergence has been achieved in  20 iterations

     negative rho (up, down):  9.825E-04 0.000E+00

     Forces acting on atoms (cartesian axes, Ry/au):

     atom    1 type  2   force =    -0.01101718   -0.00948516   -0.03883188
     atom    2 type  1   force =    -0.02417545    0.00486203    0.03085700
     atom    3 type  1   force =     0.02206104    0.01105598    0.00566555
     atom    4 type  2   force =     0.02642734    0.01458605   -0.00352017
     atom    5 type  1   force =     0.00478470    0.01790360   -0.02797067
     atom    6 type  1   force =    -0.03492961   -0.04077519    0.02289104
     atom    7 type  2   force =     0.00779453    0.00088971    0.00855123
     atom    8 type  1   force =    -0.04258582    0.01426012   -0.01831787
     atom    9 type  1   force =     0.04383612   -0.00624392   -0.00342410
     atom   10 type  2   force =    -0.01695457   -0.01638869   -0.00855393
     atom   11 type  1   force =     0.00118909    0.03039331   -0.00114905
     atom   12 type  1   force =     0.02359729   -0.03359133   -0.01542902
     atom   13 type  2   force =    -0.01200119    0.01461398    0.00571301
     atom   14 type  1   force =    -0.01967670    0.00228505   -0.01573440
     atom   15 type  1   force =     0.04048442   -0.02818170    0.02217754
     atom   16 type  2   force =     0.00510919    0.00258289    0.00465667
     atom   17 type  1   force =    -0.01265432   -0.03470661    0.02455002
     atom   18 type  1   force =     0.01910182    0.03673427   -0.02009005
     atom   19 type  2   force =    -0.02145107    0.03568926    0.01349110
     atom   20 type  1   force =     0.03782644   -0.02073773   -0.02195232
     atom   21 type  1   force =    -0.00522974   -0.00935306    0.00378053
     atom   22 type  2   force =    -0.02633353    0.03130114    0.04573938
     atom   23 type  1   force =     0.02584364   -0.01606972   -0.04801701
     atom   24 type  1   force =    -0.00126238   -0.00791105    0.01510462
     atom   25 type  2   force =    -0.01664167    0.01509129   -0.04495436
     atom   26 type  1   force =     0.05628822    0.00359100    0.00165222
     atom   27 type  1   force =    -0.03915213   -0.01598464    0.03235891
     atom   28 type  2   force =     0.00925586   -0.01178211    0.01993952
     atom   29 type  1   force =    -0.04908111    0.01077948   -0.03111113
     atom   30 type  1   force =     0.03175315   -0.00615939    0.01829618
     atom   31 type  2   force =    -0.02913670   -0.00547010   -0.01149906
     atom   32 type  1   force =    -0.00496218   -0.00711363   -0.01747962
     atom   33 type  1   force =     0.01107692    0.01115038    0.02982970
     atom   34 type  2   force =     0.03157129    0.03382268    0.01135095
     atom   35 type  1   force =     0.01970516   -0.02049578    0.01961525
     atom   36 type  1   force =    -0.04904144   -0.01458400   -0.02276506
     atom   37 type  2   force =    -0.00626767    0.00029365   -0.03385772
     atom   38 type  1   force =     0.02894346   -0.03145991    0.00917121
     atom   39 type  1   force =    -0.01695853    0.03628699    0.01681650
     atom   40 type  2   force =     0.02770939    0.01454601    0.01024208
     atom   41 type  1   force =    -0.01068380   -0.02417314   -0.01068579
     atom   42 type  1   force =    -0.04250320    0.02428051    0.01238547
     atom   43 type  2   force =     0.04610190   -0.01014593   -0.01744035
     atom   44 type  1   force =    -0.05112581    0.00843728    0.02488948
     atom   45 type  1   force =     0.00103626   -0.00102039   -0.00258245
     atom   46 type  2   force =    -0.04424180    0.01966178   -0.02402513
     atom   47 type  1   force =    -0.00031754    0.01062522   -0.01067548
     atom   48 type  1   force =     0.04136549   -0.02653270    0.02458662
     atom   49 type  2   force =     0.00291520    0.01833731   -0.00150101
     atom   50 type  1   force =     0.01735277    0.01048863   -0.04109315
     atom   51 type  1   force =    -0.02300762   -0.03109827    0.04047786
     atom   52 type  2   force =    -0.00013306   -0.02439047    0.03570134
     atom   53 type  1   force =     0.00559932   -0.00407526    0.01154118
     atom   54 type  1   force =    -0.01056855    0.00491831   -0.04977540
     atom   55 type  2   force =    -0.00004335    0.03357579   -0.00193127
     atom   56 type  1   force =     0.00980599   -0.04889657    0.00254999
     atom   57 type  1   force =     0.01253884    0.00901384    0.01265680
     atom   58 type  2   force =    -0.00213125    0.03990247   -0.01159009
     atom   59 type  1   force =    -0.01285774    0.02246819   -0.00753120
     atom   60 type  1   force =     0.00296790   -0.04563142    0.02876093
     atom   61 type  2   force =    -0.04330611   -0.00609724    0.00852633
     atom   62 type  1   force =     0.05080927    0.02742795    0.00080188
     atom   63 type  1   force =    -0.01747546   -0.03514468   -0.01095266
     atom   64 type  2   force =    -0.00726260    0.01529041   -0.02969518
     atom   65 type  1   force =     0.02347216   -0.01730940    0.04839942
     atom   66 type  1   force =    -0.00712351    0.01102261   -0.02146215
     atom   67 type  2   force =     0.04685952   -0.01548751   -0.01046548
     atom   68 type  1   force =    -0.01544476   -0.03643656    0.03950849
     atom   69 type  1   force =    -0.01871102    0.03814837   -0.03638976
     atom   70 type  2   force =     0.00530134    0.03658669   -0.01304379
     atom   71 type  1   force =    -0.04474228   -0.00240437   -0.01185849
     atom   72 type  1   force =     0.04620581   -0.02766337    0.02248220
     atom   73 type  2   force =     0.03254288   -0.02155396   -0.03087391
     atom   74 type  1   force =     0.03934798    0.02806996    0.02816066
     atom   75 type  1   force =    -0.05945087   -0.00869578   -0.00178431
     atom   76 type  2   force =    -0.00080096    0.01918518    0.02280021
     atom   77 type  1   force =    -0.02506196   -0.04249693   -0.01817596
     atom   78 type  1   force =     0.01702459    0.02146111   -0.00736634
     atom   79 type  2   force =     0.03807128   -0.01410955   -0.00192202
     atom   80 type  1   force =     0.01289472   -0.02502083    0.00039717
     atom   81 type  1   force =    -0.05278515    0.03302106    0.00030984
     atom   82 type  2   force =    -0.01150858   -0.01935825   -0.00540537
     atom   83 type  1   force =    -0.04743165    0.00993044    0.00736361
     atom   84 type  1   force =     0.04714197    0.00758675   -0.00564118
     atom   85 type  2   force =    -0.00347457    0.00632951   -0.02789333
     atom   86 type  1   force =    -0.02257252   -0.02897278    0.03755908
     atom   87 type  1   force =     0.03049820    0.03732633   -0.00827112
     atom   88 type  2   force =     0.00204087   -0.01940825    0.01879612
     atom   89 type  1   force =     0.02874371   -0.01687287    0.02570339
     atom   90 type  1   force =    -0.02005930    0.01896824   -0.04725722
     atom   91 type  2   force =    -0.01088773   -0.00010943    0.01241562
     atom   92 type  1   force =     0.01468410   -0.04044003   -0.01111009
     atom   93 type  1   force =    -0.02296187    0.05911784   -0.00194215
     atom   94 type  2   force =     0.00611038    0.01371484    0.05046125
     atom   95 type  1   force =     0.01437581    0.01154259   -0.05317792
     atom   96 type  1   force =    -0.00197970   -0.00911841    0.02849201
     The non-local contrib.  to forces
     atom    1 type  2   force =    -0.52399077   -1.21013321   -1.36108207
     atom    2 type  1   force =    -0.02618345   -0.00513517    0.09402100
     atom    3 type  1   force =     0.06805172    0.06695019   -0.01727768
     atom    4 type  2   force =     1.96653779   -0.07534450    0.38833161
     atom    5 type  1   force =    -0.03394173    0.05959226   -0.06970596
     atom    6 type  1   force =    -0.06905399   -0.05503189    0.04226391
     atom    7 type  2   force =     0.18558959    1.02618696    1.80470675
     atom    8 type  1   force =    -0.08429028   -0.01206410   -0.04674918
     atom    9 type  1   force =     0.07428184   -0.04192541   -0.04276545
     atom   10 type  2   force =    -1.87919144   -0.28941750    0.01128294
     atom   11 type  1   force =     0.04500231    0.08548188    0.01719812
     atom   12 type  1   force =     0.06195359   -0.07361797   -0.01835373
     atom   13 type  2   force =     0.92184302    1.66214607   -0.40201781
     atom   14 type  1   force =    -0.09667039   -0.00934268   -0.01646592
     atom   15 type  1   force =     0.03987130   -0.07920281    0.04278963
     atom   16 type  2   force =    -1.17872519   -0.55454499   -1.44547884
     atom   17 type  1   force =     0.00654516   -0.04737345    0.08490697
     atom   18 type  1   force =     0.06050506    0.07382593   -0.00709705
     atom   19 type  2   force =    -1.26996692    0.80272339   -1.01729784
     atom   20 type  1   force =     0.08831869   -0.03502351   -0.02722318
     atom   21 type  1   force =    -0.01467229   -0.00516137    0.09518337
     atom   22 type  2   force =     0.82306105    0.16846260    1.63326798
     atom   23 type  1   force =     0.03617629   -0.02142984   -0.08847504
     atom   24 type  1   force =    -0.09217754    0.02522574   -0.00234621
     atom   25 type  2   force =    -0.83999007    0.59686080   -1.89289390
     atom   26 type  1   force =     0.09661369    0.00292718    0.01806927
     atom   27 type  1   force =    -0.05454226   -0.03061775    0.07649310
     atom   28 type  2   force =    -0.13853022    0.80264295    1.97950911
     atom   29 type  1   force =    -0.06953923    0.00570562   -0.06847563
     atom   30 type  1   force =     0.08235692   -0.04625257   -0.03027383
     atom   31 type  2   force =    -0.84012213    1.53800591   -0.57548437
     atom   32 type  1   force =    -0.01566091   -0.08200735   -0.04625455
     atom   33 type  1   force =     0.06102742   -0.00880105    0.07491345
     atom   34 type  2   force =     0.53541458    2.02563674    0.28433417
     atom   35 type  1   force =     0.06223991   -0.06954146    0.02836510
     atom   36 type  1   force =    -0.08254619   -0.03400005   -0.03969712
     atom   37 type  2   force =    -1.08715361   -1.15865529   -1.04546304
     atom   38 type  1   force =     0.08581374   -0.02483143    0.03840100
     atom   39 type  1   force =    -0.02561068    0.09181172    0.01793199
     atom   40 type  2   force =     0.54421453    0.32128575   -1.69245299
     atom   41 type  1   force =     0.03325645   -0.07428150    0.05127260
     atom   42 type  1   force =    -0.04523240    0.06656991    0.05526257
     atom   43 type  2   force =     1.68724144    0.01102226    1.02122560
     atom   44 type  1   force =    -0.09138474    0.01804932    0.02891748
     atom   45 type  1   force =     0.00566947   -0.03155137   -0.09037323
     atom   46 type  2   force =    -1.79546998   -0.34257282    0.72290394
     atom   47 type  1   force =     0.00408442    0.05469772   -0.07833102
     atom   48 type  1   force =     0.08828470   -0.02537814    0.03426525
     atom   49 type  2   force =     0.30771517    1.95690407    0.87318882
     atom   50 type  1   force =     0.01361393   -0.01632113   -0.09520541
     atom   51 type  1   force =    -0.02994290   -0.07843569    0.04993721
     atom   52 type  2   force =     0.35595157   -1.80150264    0.64545541
     atom   53 type  1   force =    -0.00770054    0.07283816    0.06605647
     atom   54 type  1   force =    -0.01883243    0.02921760   -0.09257903
     atom   55 type  2   force =    -0.91063688    0.88394108   -1.42730872
     atom   56 type  1   force =     0.01343892   -0.09571994    0.01215188
     atom   57 type  1   force =     0.03431337    0.05292366    0.07222881
     atom   58 type  2   force =    -1.42467981    1.07159728    0.62296632
     atom   59 type  1   force =     0.06528942    0.04188679   -0.06159391
     atom   60 type  1   force =     0.01934097   -0.09541991    0.01740927
     atom   61 type  2   force =    -1.42889591    0.77907405    1.35709485
     atom   62 type  1   force =     0.09193860    0.02937193   -0.01286465
     atom   63 type  1   force =    -0.02875599   -0.06720799   -0.06306216
     atom   64 type  2   force =     0.88987794    1.28554609   -1.05988950
     atom   65 type  1   force =     0.03314367   -0.04591049    0.08036863
     atom   66 type  1   force =    -0.08663743   -0.03329410   -0.02973890
     atom   67 type  2   force =     2.19989115   -0.09186722   -0.48221985
     atom   68 type  1   force =    -0.03822581   -0.05498209    0.07174153
     atom   69 type  1   force =    -0.06466522    0.05841399   -0.04523182
     atom   70 type  2   force =     0.49974885    2.07147522   -0.81553539
     atom   71 type  1   force =    -0.09098403   -0.03697059   -0.00422029
     atom   72 type  1   force =     0.06641109   -0.05949332    0.03914030
     atom   73 type  2   force =     0.78699650   -0.70224223   -1.94679884
     atom   74 type  1   force =     0.06161558    0.03534328    0.06836785
     atom   75 type  1   force =    -0.09346039   -0.00147956    0.02706609
     atom   76 type  2   force =    -0.78092807    0.81937160    1.48744356
     atom   77 type  1   force =    -0.03327793   -0.08047080   -0.04488926
     atom   78 type  1   force =     0.07923066    0.03880319   -0.04373326
     atom   79 type  2   force =     1.79341864    1.19991609    0.44038062
     atom   80 type  1   force =     0.01358907   -0.09309079   -0.02494793
     atom   81 type  1   force =    -0.09199348    0.02751101    0.00267225
     atom   82 type  2   force =    -0.60044648    0.25879364   -1.99698232
     atom   83 type  1   force =    -0.06478535   -0.01480443    0.07205148
     atom   84 type  1   force =     0.09277945   -0.00622467    0.02961062
     atom   85 type  2   force =    -0.03249600   -1.12059587   -1.87320382
     atom   86 type  1   force =    -0.04528965   -0.02609338    0.08194655
     atom   87 type  1   force =     0.04580990    0.08706734    0.00464879
     atom   88 type  2   force =    -1.46971873   -0.87343138    1.36241889
     atom   89 type  1   force =     0.09399030    0.00341014    0.02410070
     atom   90 type  1   force =    -0.01961640    0.02919703   -0.09087921
     atom   91 type  2   force =     1.35052950    0.40832156   -1.34598495
     atom   92 type  1   force =    -0.02108784   -0.09100012    0.02895341
     atom   93 type  1   force =    -0.05360867    0.06795087    0.04649004
     atom   94 type  2   force =    -1.75988047    0.11899377    0.70198842
     atom   95 type  1   force =     0.03007118    0.01728959   -0.09158127
     atom   96 type  1   force =     0.07201278   -0.01794694    0.06097849
     The ionic contribution  to forces
     atom    1 type  2   force =    -7.72693852   11.22548030    3.96051716
     atom    2 type  1   force =    -0.56900985    1.25043775   -2.78160013
     atom    3 type  1   force =    -3.31679864   -0.37215559    0.59470751
     atom    4 type  2   force =     0.36327459    7.17222489   -6.59669840
     atom    5 type  1   force =     1.45815748   -0.54519203    1.07318706
     atom    6 type  1   force =     3.18422789    2.63084694   -2.52082433
     atom    7 type  2   force =     1.61711279   -0.17929240  -14.00468946
     atom    8 type  1   force =     2.87453354    0.84026126   -0.51654301
     atom    9 type  1   force =    -1.70976769    1.72630393   -0.59874404
     atom   10 type  2   force =     1.68637684    1.64955068    1.15834426
     atom   11 type  1   force =    -1.47354808   -2.41851501   -0.24355601
     atom   12 type  1   force =    -2.45438849    2.41617166    1.13148851
     atom   13 type  2   force =    -5.53217384   -7.25714929   -6.34191261
     atom   14 type  1   force =     2.51621559   -0.28561400   -0.41537381
     atom   15 type  1   force =    -2.09757215    1.58732438   -2.68903916
     atom   16 type  2   force =     1.79452624    2.68025823   12.50106108
     atom   17 type  1   force =     0.07643288    1.77506614   -0.94341338
     atom   18 type  1   force =    -1.59212216   -2.00475129    1.84004329
     atom   19 type  2   force =    -2.43411402   -4.77365756    1.56222930
     atom   20 type  1   force =    -3.56338734    0.66503614    0.81483269
     atom   21 type  1   force =    -0.40574100   -0.44035419   -2.95176701
     atom   22 type  2   force =    -7.38875252   -0.70825391    8.15194947
     atom   23 type  1   force =    -2.08138932    0.72181685    4.52305361
     atom   24 type  1   force =     1.57071522   -0.81951047    1.68348150
     atom   25 type  2   force =    -4.95901347    3.32735036   -4.49844649
     atom   26 type  1   force =    -4.19241603    0.52110470   -1.49166558
     atom   27 type  1   force =     1.12811140    1.83865394   -3.53478398
     atom   28 type  2   force =     6.14248257  -11.15835050   -2.40253290
     atom   29 type  1   force =     3.24782396   -1.54727742    2.87299481
     atom   30 type  1   force =    -1.72444153   -0.43970486    1.25766337
     atom   31 type  2   force =    -1.96271850    2.12530278   -5.25840500
     atom   32 type  1   force =     0.04065526    3.02454703    0.24221488
     atom   33 type  1   force =    -2.27200281    0.99862232   -3.27987358
     atom   34 type  2   force =     8.50271463    4.40028937    1.97336037
     atom   35 type  1   force =     0.00306521    3.61861816   -0.50635775
     atom   36 type  1   force =     3.91116435    2.37622909    1.88927224
     atom   37 type  2   force =     9.69137125   -1.51542811   -1.10004671
     atom   38 type  1   force =    -1.45648695    0.30210716   -1.26470279
     atom   39 type  1   force =     2.15622121   -3.53670468   -1.35863261
     atom   40 type  2   force =    -3.45922888  -10.80263941    7.99319682
     atom   41 type  1   force =    -1.24593168    0.49332448   -1.10563569
     atom   42 type  1   force =     1.31818212   -3.28360472   -0.79917667
     atom   43 type  2   force =     5.75873475    5.76988766  -10.41221664
     atom   44 type  1   force =     4.52279515    0.21010054   -2.25203683
     atom   45 type  1   force =     1.34206515    1.88020797    1.12901532
     atom   46 type  2   force =    -5.06590349    6.63872466    2.37698837
     atom   47 type  1   force =    -1.35600727   -0.37681513    3.17763504
     atom   48 type  1   force =    -4.11426059    1.87412164   -0.73750722
     atom   49 type  2   force =    -5.88711111  -11.16458609   -6.70632185
     atom   50 type  1   force =    -1.36655233   -0.75384356    2.21275985
     atom   51 type  1   force =    -0.09656670    1.22869477   -2.64921226
     atom   52 type  2   force =    -3.01784726   -3.07264063    9.83299810
     atom   53 type  1   force =    -0.24536317   -3.51695331   -0.09163257
     atom   54 type  1   force =     0.29963563   -2.07414193    4.70888397
     atom   55 type  2   force =     9.88656313   -1.02681469    5.69492363
     atom   56 type  1   force =     0.84807037    3.04492123   -0.08787428
     atom   57 type  1   force =     0.31464672   -1.30145918   -1.59607828
     atom   58 type  2   force =     7.25332857    8.24059780    2.28002999
     atom   59 type  1   force =    -1.20751578    0.32541365    3.02227388
     atom   60 type  1   force =     0.19771923    4.59209136    0.17436779
     atom   61 type  2   force =    -3.94268645   -8.36417624    1.98981393
     atom   62 type  1   force =    -3.65616282   -2.05644657    1.23803583
     atom   63 type  1   force =    -0.65112286    1.08783331    2.57595891
     atom   64 type  2   force =    -6.04310838    6.78954834   -4.95919961
     atom   65 type  1   force =    -1.83782745    2.92129548   -3.89591866
     atom   66 type  1   force =     2.02442325    2.07089690   -0.32518080
     atom   67 type  2   force =     3.37048881   -6.04222838   -8.04282266
     atom   68 type  1   force =     2.36583554    1.21421336   -3.60601251
     atom   69 type  1   force =     3.29611346   -3.06655209    0.27837914
     atom   70 type  2   force =    -8.66794512   -0.80162780   -4.40301204
     atom   71 type  1   force =     1.40199301    1.69167225   -0.59329786
     atom   72 type  1   force =    -3.34926889    2.60095335   -2.18311749
     atom   73 type  2   force =    -3.11303929   -5.17965906    1.38820671
     atom   74 type  1   force =    -2.69244410   -1.92745505   -2.73407057
     atom   75 type  1   force =     3.34975825   -0.80572736   -1.35616505
     atom   76 type  2   force =     6.17416581    3.06388207   -5.03299514
     atom   77 type  1   force =     2.05264882    3.03792240    0.76766601
     atom   78 type  1   force =    -1.69319463   -0.74401259    1.04954039
     atom   79 type  2   force =    -5.13097935   -9.78759256   -9.01755154
     atom   80 type  1   force =    -0.84601875    1.27750844   -0.92432858
     atom   81 type  1   force =     3.20494378   -2.12727324   -1.41458321
     atom   82 type  2   force =     6.75644521   -5.48916075   12.90214064
     atom   83 type  1   force =     3.20189621   -0.41378689   -0.57436979
     atom   84 type  1   force =    -2.09032393   -0.66163717    0.69075775
     atom   85 type  2   force =     3.90536897    8.56919999   12.67670446
     atom   86 type  1   force =     2.15667183    1.84913594   -0.95661662
     atom   87 type  1   force =    -0.86101784   -1.73627903    1.53568058
     atom   88 type  2   force =     5.52740632   -6.25085384    3.48870161
     atom   89 type  1   force =    -2.20728345   -1.11492242    0.00140970
     atom   90 type  1   force =     1.13904224   -2.55790007    4.33585051
     atom   91 type  2   force =    -0.39433873   -6.47944484   -1.98823946
     atom   92 type  1   force =     1.04066533    2.26597584   -1.68805169
     atom   93 type  1   force =     1.92938186   -3.50523867   -2.17313637
     atom   94 type  2   force =     0.63982518    9.43661908    8.50152329
     atom   95 type  1   force =    -1.60631497    0.91353644    4.83242386
     atom   96 type  1   force =    -2.48584944    2.52550156   -0.48029651
     The local contribution  to forces
     atom    1 type  2   force =     8.23468250  -10.03679366   -2.65191730
     atom    2 type  1   force =     0.57101787   -1.24044064    2.71843589
     atom    3 type  1   force =     3.27080777    0.31626109   -0.57176423
     atom    4 type  2   force =    -2.28333715   -7.08273631    6.20830690
     atom    5 type  1   force =    -1.41943116    0.50350343   -1.03145185
     atom    6 type  1   force =    -3.15010370   -2.61659039    2.50145158
     atom    7 type  2   force =    -1.79287219   -0.83579746   12.22651372
     atom    8 type  1   force =    -2.83282913   -0.81393710    0.54497432
     atom    9 type  1   force =     1.67932200   -1.69062253    0.63808537
     atom   10 type  2   force =     0.15716664   -1.37958488   -1.17832531
     atom   11 type  1   force =     1.42973470    2.36342628    0.22520887
     atom   12 type  1   force =     2.41603203   -2.37614503   -1.12856373
     atom   13 type  2   force =     4.60726563    5.62634369    6.74558185
     atom   14 type  1   force =    -2.43922168    0.29724173    0.41610541
     atom   15 type  1   force =     2.09818513   -1.53630314    2.66842703
     atom   16 type  2   force =    -0.62222206   -2.12859793  -11.06523163
     atom   17 type  1   force =    -0.09563241   -1.76239934    0.88305651
     atom   18 type  1   force =     1.55071880    1.96765950   -1.85303622
     atom   19 type  2   force =     3.66967626    4.01487898   -0.54108981
     atom   20 type  1   force =     3.51289492   -0.65075033   -0.80956173
     atom   21 type  1   force =     0.41518346    0.43616254    2.86036420
     atom   22 type  2   force =     6.54698026    0.57318469   -9.72267539
     atom   23 type  1   force =     2.07105666   -0.71645680   -4.48259559
     atom   24 type  1   force =    -1.47980009    0.78637363   -1.66603067
     atom   25 type  2   force =     5.77348957   -3.90294385    6.32678622
     atom   26 type  1   force =     4.15209063   -0.52044095    1.47524863
     atom   27 type  1   force =    -1.11272135   -1.82402093    3.49064993
     atom   28 type  2   force =    -5.99576422   10.35174775    0.46327576
     atom   29 type  1   force =    -3.22736592    1.55235121   -2.83563033
     atom   30 type  1   force =     1.67383777    0.47979794   -1.20909338
     atom   31 type  2   force =     2.76524803   -3.65376585    5.81683469
     atom   32 type  1   force =    -0.02995659   -2.94965319   -0.21343982
     atom   33 type  1   force =     2.22205213   -0.97867090    3.23478976
     atom   34 type  2   force =    -9.00053272   -6.37159366   -2.24328791
     atom   35 type  1   force =    -0.04560013   -3.56957238    0.49760790
     atom   36 type  1   force =    -3.87765949   -2.35681299   -1.87234007
     atom   37 type  2   force =    -8.62114231    2.66282228    2.10097484
     atom   38 type  1   force =     1.39961655   -0.30873576    1.23547299
     atom   39 type  1   force =    -2.14756909    3.48117976    1.35751714
     atom   40 type  2   force =     2.94859222   10.49885793   -6.30680402
     atom   41 type  1   force =     1.20199137   -0.44321602    1.04367727
     atom   42 type  1   force =    -1.31545278    3.24131518    0.75629953
     atom   43 type  2   force =    -7.38242714   -5.79126309    9.38316953
     atom   44 type  1   force =    -4.48253626   -0.21971263    2.24800884
     atom   45 type  1   force =    -1.34669838   -1.84967705   -1.04122460
     atom   46 type  2   force =     6.79879157   -6.27953537   -3.11705258
     atom   47 type  1   force =     1.35160532    0.33274256   -3.10997954
     atom   48 type  1   force =     4.06734144   -1.87527631    0.72782864
     atom   49 type  2   force =     5.58542844    9.24596372    5.84034375
     atom   50 type  1   force =     1.37029113    0.78065338   -2.15864729
     atom   51 type  1   force =     0.10350201   -1.18135715    2.63975290
     atom   52 type  2   force =     2.66519060    4.83158514  -10.43572747
     atom   53 type  1   force =     0.25866297    3.44004002    0.03711746
     atom   54 type  1   force =    -0.29137182    2.04984266   -4.66608040
     atom   55 type  2   force =    -8.98488337    0.18568466   -4.28340221
     atom   56 type  1   force =    -0.85170331   -2.99809800    0.07827246
     atom   57 type  1   force =    -0.33642123    1.25754931    1.53650639
     atom   58 type  2   force =    -5.84477160   -9.26107063   -2.90849013
     atom   59 type  1   force =     1.12936868   -0.34483226   -2.96821120
     atom   60 type  1   force =    -0.21409230   -4.54230302   -0.16301608
     atom   61 type  2   force =     5.31330582    7.58675216   -3.32484356
     atom   62 type  1   force =     3.61503356    2.05450258   -1.22436928
     atom   63 type  1   force =     0.66240338   -1.05577007   -2.52384945
     atom   64 type  2   force =     5.15443085   -8.04677215    5.97834459
     atom   65 type  1   force =     1.82815593   -2.89269452    3.86394958
     atom   66 type  1   force =    -1.94490939   -2.02658028    0.33345760
     atom   67 type  2   force =    -5.50065263    6.11765568    8.50941168
     atom   68 type  1   force =    -2.34305447   -1.19566788    3.57377948
     atom   69 type  1   force =    -3.25015925    3.04628637   -0.26953703
     atom   70 type  2   force =     8.17851012   -1.21174417    5.19697561
     atom   71 type  1   force =    -1.35575136   -1.65710608    0.58565971
     atom   72 type  1   force =     3.32906363   -2.56912349    2.16645946
     atom   73 type  2   force =     2.36674693    5.85293414    0.50749297
     atom   74 type  1   force =     2.67017642    1.92018155    2.69386324
     atom   75 type  1   force =    -3.31574853    0.79851105    1.32731461
     atom   76 type  2   force =    -5.40175535   -3.85575440    3.58331352
     atom   77 type  1   force =    -2.04443287   -2.99994843   -0.74095259
     atom   78 type  1   force =     1.63098843    0.72667044   -1.01317337
     atom   79 type  2   force =     3.39431832    8.58538786    8.57964729
     atom   80 type  1   force =     0.84532444   -1.20943854    0.94967369
     atom   81 type  1   force =    -3.16573537    2.13278318    1.41222083
     atom   82 type  2   force =    -6.17369168    5.21328512  -10.93070773
     atom   83 type  1   force =    -3.18454258    0.43852167    0.50968210
     atom   84 type  1   force =     2.04468653    0.67544851   -0.72600941
     atom   85 type  2   force =    -3.87670930   -7.45350036  -10.85064124
     atom   86 type  1   force =    -2.13395478   -1.85201540    0.91222934
     atom   87 type  1   force =     0.84570615    1.68653804   -1.54860037
     atom   88 type  2   force =    -4.07038667    7.09575562   -4.81827111
     atom   89 type  1   force =     2.14203689    1.09463937    0.00019303
     atom   90 type  1   force =    -1.13948518    2.54767122   -4.29222848
     atom   91 type  2   force =    -0.95377487    6.07487124    3.33318287
     atom   92 type  1   force =    -1.00489343   -2.21541588    1.64798825
     atom   93 type  1   force =    -1.89873514    3.49640558    2.12470429
     atom   94 type  2   force =     1.10892337   -9.54044156   -9.14523578
     atom   95 type  1   force =     1.59061955   -0.91928351   -4.79402043
     atom   96 type  1   force =     2.41185699   -2.51667309    0.44781013
     The core correction contribution to forces
     atom    1 type  2   force =     0.00522943    0.01196076    0.01364987
     atom    2 type  1   force =     0.00000000    0.00000000    0.00000000
     atom    3 type  1   force =     0.00000000    0.00000000    0.00000000
     atom    4 type  2   force =    -0.02004832    0.00044206   -0.00346049
     atom    5 type  1   force =     0.00000000    0.00000000    0.00000000
     atom    6 type  1   force =     0.00000000    0.00000000    0.00000000
     atom    7 type  2   force =    -0.00203563   -0.01020751   -0.01798001
     atom    8 type  1   force =     0.00000000    0.00000000    0.00000000
     atom    9 type  1   force =     0.00000000    0.00000000    0.00000000
     atom   10 type  2   force =     0.01869273    0.00306299    0.00014423
     atom   11 type  1   force =     0.00000000    0.00000000    0.00000000
     atom   12 type  1   force =     0.00000000    0.00000000    0.00000000
     atom   13 type  2   force =    -0.00893594   -0.01672584    0.00406156
     atom   14 type  1   force =     0.00000000    0.00000000    0.00000000
     atom   15 type  1   force =     0.00000000    0.00000000    0.00000000
     atom   16 type  2   force =     0.01152997    0.00546756    0.01430637
     atom   17 type  1   force =     0.00000000    0.00000000    0.00000000
     atom   18 type  1   force =     0.00000000    0.00000000    0.00000000
     atom   19 type  2   force =     0.01295286   -0.00825495    0.00964973
     atom   20 type  1   force =     0.00000000    0.00000000    0.00000000
     atom   21 type  1   force =     0.00000000    0.00000000    0.00000000
     atom   22 type  2   force =    -0.00762224   -0.00209234   -0.01680331
     atom   23 type  1   force =     0.00000000    0.00000000    0.00000000
     atom   24 type  1   force =     0.00000000    0.00000000    0.00000000
     atom   25 type  2   force =     0.00887222   -0.00617615    0.01960019
     atom   26 type  1   force =     0.00000000    0.00000000    0.00000000
     atom   27 type  1   force =     0.00000000    0.00000000    0.00000000
     atom   28 type  2   force =     0.00106762   -0.00782246   -0.02031288
     atom   29 type  1   force =     0.00000000    0.00000000    0.00000000
     atom   30 type  1   force =     0.00000000    0.00000000    0.00000000
     atom   31 type  2   force =     0.00845531   -0.01501250    0.00555554
     atom   32 type  1   force =     0.00000000    0.00000000    0.00000000
     atom   33 type  1   force =     0.00000000    0.00000000    0.00000000
     atom   34 type  2   force =    -0.00602524   -0.02050924   -0.00305569
     atom   35 type  1   force =     0.00000000    0.00000000    0.00000000
     atom   36 type  1   force =     0.00000000    0.00000000    0.00000000
     atom   37 type  2   force =     0.01065676    0.01155413    0.01067692
     atom   38 type  1   force =     0.00000000    0.00000000    0.00000000
     atom   39 type  1   force =     0.00000000    0.00000000    0.00000000
     atom   40 type  2   force =    -0.00586811   -0.00295811    0.01630211
     atom   41 type  1   force =     0.00000000    0.00000000    0.00000000
     atom   42 type  1   force =     0.00000000    0.00000000    0.00000000
     atom   43 type  2   force =    -0.01744734    0.00020729   -0.00961910
     atom   44 type  1   force =     0.00000000    0.00000000    0.00000000
     atom   45 type  1   force =     0.00000000    0.00000000    0.00000000
     atom   46 type  2   force =     0.01834044    0.00304505   -0.00686498
     atom   47 type  1   force =     0.00000000    0.00000000    0.00000000
     atom   48 type  1   force =     0.00000000    0.00000000    0.00000000
     atom   49 type  2   force =    -0.00311725   -0.01994363   -0.00871138
     atom   50 type  1   force =     0.00000000    0.00000000    0.00000000
     atom   51 type  1   force =     0.00000000    0.00000000    0.00000000
     atom   52 type  2   force =    -0.00342815    0.01816825   -0.00702480
     atom   53 type  1   force =     0.00000000    0.00000000    0.00000000
     atom   54 type  1   force =     0.00000000    0.00000000    0.00000000
     atom   55 type  2   force =     0.00891394   -0.00923549    0.01385628
     atom   56 type  1   force =     0.00000000    0.00000000    0.00000000
     atom   57 type  1   force =     0.00000000    0.00000000    0.00000000
     atom   58 type  2   force =     0.01399188   -0.01122218   -0.00609627
     atom   59 type  1   force =     0.00000000    0.00000000    0.00000000
     atom   60 type  1   force =     0.00000000    0.00000000    0.00000000
     atom   61 type  2   force =     0.01497078   -0.00774688   -0.01353918
     atom   62 type  1   force =     0.00000000    0.00000000    0.00000000
     atom   63 type  1   force =     0.00000000    0.00000000    0.00000000
     atom   64 type  2   force =    -0.00846309   -0.01303244    0.01104985
     atom   65 type  1   force =     0.00000000    0.00000000    0.00000000
     atom   66 type  1   force =     0.00000000    0.00000000    0.00000000
     atom   67 type  2   force =    -0.02286750    0.00095217    0.00516542
     atom   68 type  1   force =     0.00000000    0.00000000    0.00000000
     atom   69 type  1   force =     0.00000000    0.00000000    0.00000000
     atom   70 type  2   force =    -0.00501256   -0.02151649    0.00852812
     atom   71 type  1   force =     0.00000000    0.00000000    0.00000000
     atom   72 type  1   force =     0.00000000    0.00000000    0.00000000
     atom   73 type  2   force =    -0.00816054    0.00741288    0.02022486
     atom   74 type  1   force =     0.00000000    0.00000000    0.00000000
     atom   75 type  1   force =     0.00000000    0.00000000    0.00000000
     atom   76 type  2   force =     0.00771635   -0.00831375   -0.01496143
     atom   77 type  1   force =     0.00000000    0.00000000    0.00000000
     atom   78 type  1   force =     0.00000000    0.00000000    0.00000000
     atom   79 type  2   force =    -0.01868548   -0.01182155   -0.00439851
     atom   80 type  1   force =     0.00000000    0.00000000    0.00000000
     atom   81 type  1   force =     0.00000000    0.00000000    0.00000000
     atom   82 type  2   force =     0.00618437   -0.00227643    0.02014466
     atom   83 type  1   force =     0.00000000    0.00000000    0.00000000
     atom   84 type  1   force =     0.00000000    0.00000000    0.00000000
     atom   85 type  2   force =     0.00036161    0.01122586    0.01924798
     atom   86 type  1   force =     0.00000000    0.00000000    0.00000000
     atom   87 type  1   force =     0.00000000    0.00000000    0.00000000
     atom   88 type  2   force =     0.01473963    0.00912121   -0.01405341
     atom   89 type  1   force =     0.00000000    0.00000000    0.00000000
     atom   90 type  1   force =     0.00000000    0.00000000    0.00000000
     atom   91 type  2   force =    -0.01330372   -0.00385779    0.01345739
     atom   92 type  1   force =     0.00000000    0.00000000    0.00000000
     atom   93 type  1   force =     0.00000000    0.00000000    0.00000000
     atom   94 type  2   force =     0.01724209   -0.00145658   -0.00781436
     atom   95 type  1   force =     0.00000000    0.00000000    0.00000000
     atom   96 type  1   force =     0.00000000    0.00000000    0.00000000
     The Hubbard contrib.    to forces
     atom    1 type  2   force =     0.00000000    0.00000000    0.00000000
     atom    2 type  1   force =     0.00000000    0.00000000    0.00000000
     atom    3 type  1   force =     0.00000000    0.00000000    0.00000000
     atom    4 type  2   force =     0.00000000    0.00000000    0.00000000
     atom    5 type  1   force =     0.00000000    0.00000000    0.00000000
     atom    6 type  1   force =     0.00000000    0.00000000    0.00000000
     atom    7 type  2   force =     0.00000000    0.00000000    0.00000000
     atom    8 type  1   force =     0.00000000    0.00000000    0.00000000
     atom    9 type  1   force =     0.00000000    0.00000000    0.00000000
     atom   10 type  2   force =     0.00000000    0.00000000    0.00000000
     atom   11 type  1   force =     0.00000000    0.00000000    0.00000000
     atom   12 type  1   force =     0.00000000    0.00000000    0.00000000
     atom   13 type  2   force =     0.00000000    0.00000000    0.00000000
     atom   14 type  1   force =     0.00000000    0.00000000    0.00000000
     atom   15 type  1   force =     0.00000000    0.00000000    0.00000000
     atom   16 type  2   force =     0.00000000    0.00000000    0.00000000
     atom   17 type  1   force =     0.00000000    0.00000000    0.00000000
     atom   18 type  1   force =     0.00000000    0.00000000    0.00000000
     atom   19 type  2   force =     0.00000000    0.00000000    0.00000000
     atom   20 type  1   force =     0.00000000    0.00000000    0.00000000
     atom   21 type  1   force =     0.00000000    0.00000000    0.00000000
     atom   22 type  2   force =     0.00000000    0.00000000    0.00000000
     atom   23 type  1   force =     0.00000000    0.00000000    0.00000000
     atom   24 type  1   force =     0.00000000    0.00000000    0.00000000
     atom   25 type  2   force =     0.00000000    0.00000000    0.00000000
     atom   26 type  1   force =     0.00000000    0.00000000    0.00000000
     atom   27 type  1   force =     0.00000000    0.00000000    0.00000000
     atom   28 type  2   force =     0.00000000    0.00000000    0.00000000
     atom   29 type  1   force =     0.00000000    0.00000000    0.00000000
     atom   30 type  1   force =     0.00000000    0.00000000    0.00000000
     atom   31 type  2   force =     0.00000000    0.00000000    0.00000000
     atom   32 type  1   force =     0.00000000    0.00000000    0.00000000
     atom   33 type  1   force =     0.00000000    0.00000000    0.00000000
     atom   34 type  2   force =     0.00000000    0.00000000    0.00000000
     atom   35 type  1   force =     0.00000000    0.00000000    0.00000000
     atom   36 type  1   force =     0.00000000    0.00000000    0.00000000
     atom   37 type  2   force =     0.00000000    0.00000000    0.00000000
     atom   38 type  1   force =     0.00000000    0.00000000    0.00000000
     atom   39 type  1   force =     0.00000000    0.00000000    0.00000000
     atom   40 type  2   force =     0.00000000    0.00000000    0.00000000
     atom   41 type  1   force =     0.00000000    0.00000000    0.00000000
     atom   42 type  1   force =     0.00000000    0.00000000    0.00000000
     atom   43 type  2   force =     0.00000000    0.00000000    0.00000000
     atom   44 type  1   force =     0.00000000    0.00000000    0.00000000
     atom   45 type  1   force =     0.00000000    0.00000000    0.00000000
     atom   46 type  2   force =     0.00000000    0.00000000    0.00000000
     atom   47 type  1   force =     0.00000000    0.00000000    0.00000000
     atom   48 type  1   force =     0.00000000    0.00000000    0.00000000
     atom   49 type  2   force =     0.00000000    0.00000000    0.00000000
     atom   50 type  1   force =     0.00000000    0.00000000    0.00000000
     atom   51 type  1   force =     0.00000000    0.00000000    0.00000000
     atom   52 type  2   force =     0.00000000    0.00000000    0.00000000
     atom   53 type  1   force =     0.00000000    0.00000000    0.00000000
     atom   54 type  1   force =     0.00000000    0.00000000    0.00000000
     atom   55 type  2   force =     0.00000000    0.00000000    0.00000000
     atom   56 type  1   force =     0.00000000    0.00000000    0.00000000
     atom   57 type  1   force =     0.00000000    0.00000000    0.00000000
     atom   58 type  2   force =     0.00000000    0.00000000    0.00000000
     atom   59 type  1   force =     0.00000000    0.00000000    0.00000000
     atom   60 type  1   force =     0.00000000    0.00000000    0.00000000
     atom   61 type  2   force =     0.00000000    0.00000000    0.00000000
     atom   62 type  1   force =     0.00000000    0.00000000    0.00000000
     atom   63 type  1   force =     0.00000000    0.00000000    0.00000000
     atom   64 type  2   force =     0.00000000    0.00000000    0.00000000
     atom   65 type  1   force =     0.00000000    0.00000000    0.00000000
     atom   66 type  1   force =     0.00000000    0.00000000    0.00000000
     atom   67 type  2   force =     0.00000000    0.00000000    0.00000000
     atom   68 type  1   force =     0.00000000    0.00000000    0.00000000
     atom   69 type  1   force =     0.00000000    0.00000000    0.00000000
     atom   70 type  2   force =     0.00000000    0.00000000    0.00000000
     atom   71 type  1   force =     0.00000000    0.00000000    0.00000000
     atom   72 type  1   force =     0.00000000    0.00000000    0.00000000
     atom   73 type  2   force =     0.00000000    0.00000000    0.00000000
     atom   74 type  1   force =     0.00000000    0.00000000    0.00000000
     atom   75 type  1   force =     0.00000000    0.00000000    0.00000000
     atom   76 type  2   force =     0.00000000    0.00000000    0.00000000
     atom   77 type  1   force =     0.00000000    0.00000000    0.00000000
     atom   78 type  1   force =     0.00000000    0.00000000    0.00000000
     atom   79 type  2   force =     0.00000000    0.00000000    0.00000000
     atom   80 type  1   force =     0.00000000    0.00000000    0.00000000
     atom   81 type  1   force =     0.00000000    0.00000000    0.00000000
     atom   82 type  2   force =     0.00000000    0.00000000    0.00000000
     atom   83 type  1   force =     0.00000000    0.00000000    0.00000000
     atom   84 type  1   force =     0.00000000    0.00000000    0.00000000
     atom   85 type  2   force =     0.00000000    0.00000000    0.00000000
     atom   86 type  1   force =     0.00000000    0.00000000    0.00000000
     atom   87 type  1   force =     0.00000000    0.00000000    0.00000000
     atom   88 type  2   force =     0.00000000    0.00000000    0.00000000
     atom   89 type  1   force =     0.00000000    0.00000000    0.00000000
     atom   90 type  1   force =     0.00000000    0.00000000    0.00000000
     atom   91 type  2   force =     0.00000000    0.00000000    0.00000000
     atom   92 type  1   force =     0.00000000    0.00000000    0.00000000
     atom   93 type  1   force =     0.00000000    0.00000000    0.00000000
     atom   94 type  2   force =     0.00000000    0.00000000    0.00000000
     atom   95 type  1   force =     0.00000000    0.00000000    0.00000000
     atom   96 type  1   force =     0.00000000    0.00000000    0.00000000
     The SCF correction term to forces
     atom    1 type  2   force =     0.00000016    0.00000058    0.00000051
     atom    2 type  1   force =    -0.00000005    0.00000003    0.00000029
     atom    3 type  1   force =     0.00000017    0.00000023   -0.00000000
     atom    4 type  2   force =     0.00000041   -0.00000015    0.00000024
     atom    5 type  1   force =     0.00000008   -0.00000012    0.00000013
     atom    6 type  1   force =     0.00000017    0.00000009   -0.00000007
     atom    7 type  2   force =    -0.00000004    0.00000005    0.00000028
     atom    8 type  1   force =     0.00000002    0.00000000    0.00000004
     atom    9 type  1   force =    -0.00000005    0.00000002    0.00000007
     atom   10 type  2   force =     0.00000063   -0.00000004   -0.00000000
     atom   11 type  1   force =     0.00000013    0.00000009    0.00000001
     atom   12 type  1   force =     0.00000013   -0.00000005   -0.00000003
     atom   13 type  2   force =    -0.00000009   -0.00000071    0.00000008
     atom   14 type  1   force =    -0.00000026   -0.00000006   -0.00000003
     atom   15 type  1   force =     0.00000011   -0.00000020    0.00000009
     atom   16 type  2   force =     0.00000020   -0.00000004   -0.00000026
     atom   17 type  1   force =     0.00000002   -0.00000002   -0.00000002
     atom   18 type  1   force =     0.00000010    0.00000006   -0.00000002
     atom   19 type  2   force =     0.00000071   -0.00000068   -0.00000024
     atom   20 type  1   force =     0.00000015   -0.00000010   -0.00000005
     atom   21 type  1   force =     0.00000007   -0.00000009    0.00000002
     atom   22 type  2   force =    -0.00000011    0.00000004    0.00000068
     atom   23 type  1   force =    -0.00000002    0.00000000    0.00000006
     atom   24 type  1   force =    -0.00000001   -0.00000001    0.00000004
     atom   25 type  2   force =     0.00000005    0.00000006   -0.00000034
     atom   26 type  1   force =    -0.00000010    0.00000000   -0.00000004
     atom   27 type  1   force =     0.00000006    0.00000003   -0.00000009
     atom   28 type  2   force =     0.00000008    0.00000009    0.00000048
     atom   29 type  1   force =     0.00000005    0.00000001    0.00000007
     atom   30 type  1   force =    -0.00000004    0.00000005    0.00000006
     atom   31 type  2   force =     0.00000057   -0.00000049    0.00000012
     atom   32 type  1   force =     0.00000003   -0.00000019   -0.00000008
     atom   33 type  1   force =     0.00000015   -0.00000005    0.00000012
     atom   34 type  2   force =     0.00000001   -0.00000059    0.00000005
     atom   35 type  1   force =     0.00000013   -0.00000017    0.00000005
     atom   36 type  1   force =    -0.00000014   -0.00000010   -0.00000007
     atom   37 type  2   force =     0.00000021    0.00000058    0.00000032
     atom   38 type  1   force =     0.00000009    0.00000005    0.00000007
     atom   39 type  1   force =     0.00000001    0.00000013    0.00000004
     atom   40 type  2   force =    -0.00000040   -0.00000022    0.00000022
     atom   41 type  1   force =     0.00000003   -0.00000016    0.00000009
     atom   42 type  1   force =    -0.00000016    0.00000009    0.00000009
     atom   43 type  2   force =     0.00000016   -0.00000013    0.00000030
     atom   44 type  1   force =     0.00000000   -0.00000001    0.00000003
     atom   45 type  1   force =    -0.00000001    0.00000000    0.00000011
     atom   46 type  2   force =    -0.00000036    0.00000021    0.00000017
     atom   47 type  1   force =    -0.00000004    0.00000000    0.00000008
     atom   48 type  1   force =    -0.00000009    0.00000004   -0.00000000
     atom   49 type  2   force =    -0.00000009   -0.00000082   -0.00000030
     atom   50 type  1   force =     0.00000002   -0.00000013   -0.00000025
     atom   51 type  1   force =    -0.00000006   -0.00000026    0.00000007
     atom   52 type  2   force =     0.00000016   -0.00000065    0.00000015
     atom   53 type  1   force =     0.00000002   -0.00000019   -0.00000014
     atom   54 type  1   force =     0.00000003   -0.00000008    0.00000012
     atom   55 type  2   force =    -0.00000019    0.00000017   -0.00000020
     atom   56 type  1   force =    -0.00000002    0.00000008   -0.00000002
     atom   57 type  1   force =    -0.00000004   -0.00000002   -0.00000007
     atom   58 type  2   force =    -0.00000032    0.00000014    0.00000006
     atom   59 type  1   force =    -0.00000009   -0.00000005    0.00000007
     atom   60 type  1   force =    -0.00000003    0.00000008   -0.00000001
     atom   61 type  2   force =    -0.00000037   -0.00000039    0.00000034
     atom   62 type  1   force =    -0.00000009   -0.00000005    0.00000003
     atom   63 type  1   force =    -0.00000003    0.00000001    0.00000008
     atom   64 type  2   force =     0.00000005    0.00000052   -0.00000046
     atom   65 type  1   force =    -0.00000002    0.00000008   -0.00000009
     atom   66 type  1   force =     0.00000004    0.00000003   -0.00000001
     atom   67 type  2   force =    -0.00000034    0.00000018   -0.00000001
     atom   68 type  1   force =    -0.00000004   -0.00000001    0.00000004
     atom   69 type  1   force =    -0.00000004    0.00000003   -0.00000001
     atom   70 type  2   force =     0.00000003   -0.00000012   -0.00000004
     atom   71 type  1   force =     0.00000006   -0.00000001   -0.00000001
     atom   72 type  1   force =    -0.00000006    0.00000002   -0.00000002
     atom   73 type  2   force =    -0.00000075    0.00000024    0.00000045
     atom   74 type  1   force =     0.00000005    0.00000011    0.00000019
     atom   75 type  1   force =    -0.00000022    0.00000002    0.00000010
     atom   76 type  2   force =     0.00000027   -0.00000040   -0.00000026
     atom   77 type  1   force =    -0.00000001   -0.00000017   -0.00000008
     atom   78 type  1   force =     0.00000010    0.00000001   -0.00000005
     atom   79 type  2   force =    -0.00000088    0.00000054    0.00000016
     atom   80 type  1   force =    -0.00000007   -0.00000000    0.00000004
     atom   81 type  1   force =    -0.00000010    0.00000005    0.00000001
     atom   82 type  2   force =    -0.00000002    0.00000011   -0.00000057
     atom   83 type  1   force =     0.00000005    0.00000003   -0.00000013
     atom   84 type  1   force =    -0.00000011    0.00000002   -0.00000009
     atom   85 type  2   force =     0.00000011   -0.00000017   -0.00000067
     atom   86 type  1   force =     0.00000006   -0.00000000   -0.00000015
     atom   87 type  1   force =    -0.00000004   -0.00000008   -0.00000008
     atom   88 type  2   force =     0.00000029    0.00000008    0.00000018
     atom   89 type  1   force =    -0.00000007   -0.00000002    0.00000001
     atom   90 type  1   force =     0.00000001    0.00000000    0.00000000
     atom   91 type  2   force =     0.00000007    0.00000034   -0.00000018
     atom   92 type  1   force =     0.00000002    0.00000008   -0.00000002
     atom   93 type  1   force =     0.00000005   -0.00000000   -0.00000006
     atom   94 type  2   force =     0.00000017    0.00000008   -0.00000026
     atom   95 type  1   force =     0.00000002    0.00000001   -0.00000003
     atom   96 type  1   force =    -0.00000006   -0.00000001   -0.00000005

     Total force =     0.423150     Total SCF correction =     0.000004

     Writing all to output data dir ./006.save/
 
     init_run     :      4.71s CPU      7.81s WALL (       1 calls)
     electrons    :     31.33s CPU     12.47s WALL (       1 calls)
     forces       :      1.18s CPU      0.44s WALL (       1 calls)

     Called by init_run:
     wfcinit      :      0.12s CPU      5.78s WALL (       1 calls)
                                        5.78s GPU  (       1 calls)
     wfcinit:atom :      0.00s CPU      0.00s WALL (       1 calls)
                                        0.00s GPU  (       1 calls)
     wfcinit:wfcr :      0.08s CPU      5.73s WALL (       1 calls)
                                        5.73s GPU  (       1 calls)
     potinit      :      2.37s CPU      0.50s WALL (       1 calls)
     hinit0       :      1.37s CPU      0.51s WALL (       1 calls)

     Called by electrons:
     c_bands      :      2.45s CPU      3.25s WALL (      20 calls)
     sum_band     :      2.20s CPU      1.44s WALL (      20 calls)
     v_of_rho     :     15.20s CPU      3.31s WALL (      21 calls)
     v_h          :      0.99s CPU      0.25s WALL (      21 calls)
     v_xc         :     14.81s CPU      3.19s WALL (      22 calls)
     newd         :      1.29s CPU      1.74s WALL (      21 calls)
                                        1.74s GPU  (      21 calls)
     PAW_pot      :      9.04s CPU      2.35s WALL (      21 calls)
     mix_rho      :      1.89s CPU      0.76s WALL (      20 calls)

     Called by c_bands:
     init_us_2_gp :      0.09s CPU      0.11s WALL (      41 calls)
     regterg      :      2.37s CPU      3.14s WALL (      20 calls)

     Called by sum_band:
     sum_band:wei :      0.00s CPU      0.00s WALL (      20 calls)
                                        0.00s GPU  (      20 calls)
     sum_band:loo :      0.73s CPU      0.92s WALL (      20 calls)
                                        0.92s GPU  (      20 calls)
     sum_band:buf :      0.00s CPU      0.00s WALL (      20 calls)
                                        0.00s GPU  (      20 calls)
     sum_band:ini :      0.04s CPU      0.06s WALL (      20 calls)
                                        0.06s GPU  (      20 calls)
     sum_band:cal :      0.02s CPU      0.02s WALL (      20 calls)
                                        0.02s GPU  (      20 calls)
     sum_band:bec :      0.03s CPU      0.04s WALL (      20 calls)
                                        0.04s GPU  (      20 calls)
     addusdens    :      0.24s CPU      0.19s WALL (      20 calls)
                                        0.19s GPU  (      20 calls)
     addusd:skk   :      0.12s CPU      0.04s WALL (      40 calls)
                                        0.03s GPU  (      40 calls)

     Called by *egterg:
     rdiaghg      :      0.53s CPU      6.23s WALL (      74 calls)
                                        6.22s GPU  (      74 calls)
     regterg:over :      0.06s CPU      0.07s WALL (      54 calls)
     regterg:upda :      0.02s CPU      0.02s WALL (      54 calls)
     regterg:last :      0.03s CPU      0.03s WALL (      48 calls)
     h_psi        :      1.59s CPU      2.03s WALL (      75 calls)
                                        2.02s GPU  (      75 calls)
     s_psi        :      0.05s CPU      0.09s WALL (      75 calls)
                                        0.08s GPU  (      75 calls)
     g_psi        :      0.00s CPU      0.00s WALL (      54 calls)
                                        0.00s GPU  (      54 calls)

     Called by h_psi:
     h_psi:calbec :      0.05s CPU      0.06s WALL (      75 calls)
                                        0.06s GPU  (      75 calls)
     vloc_psi     :      1.46s CPU      1.87s WALL (      75 calls)
                                        1.86s GPU  (      75 calls)
     add_vuspsi   :      0.04s CPU      0.08s WALL (      75 calls)
                                        0.08s GPU  (      75 calls)

     General routines
     calbec       :      0.07s CPU      0.09s WALL (      99 calls)
     fft          :      7.34s CPU      2.28s WALL (     238 calls)
                                        0.29s GPU  (      25 calls)
     ffts         :      0.72s CPU      0.14s WALL (      41 calls)
     fftw         :      1.96s CPU      2.50s WALL (    1786 calls)
                                        2.39s GPU  (    1786 calls)
     interpolate  :      1.15s CPU      0.30s WALL (      21 calls)
 
     Parallel routines

     PAW routines
     PAW_pot      :      9.04s CPU      2.35s WALL (      21 calls)
 
     PWSCF        :     37.78s CPU     21.48s WALL

 
   This run was terminated on:   0:26:30  30Sep2021            

=------------------------------------------------------------------------------=
   JOB DONE.
=------------------------------------------------------------------------------=
