
     Program PWSCF v.6.8 starts on 30Sep2021 at  0:39: 0 

     This program is part of the open-source Quantum ESPRESSO suite
     for quantum simulation of materials; please cite
         "P. Giannozzi et al., J. Phys.:Condens. Matter 21 395502 (2009);
         "P. Giannozzi et al., J. Phys.:Condens. Matter 29 465901 (2017);
         "P. Giannozzi et al., J. Chem. Phys. 152 154105 (2020);
          URL http://www.quantum-espresso.org", 
     in publications or presentations arising from this work. More details at
     http://www.quantum-espresso.org/quote

     Parallel version (MPI & OpenMP), running on      32 processor cores
     Number of MPI processes:                 4
     Threads/MPI process:                     8

     MPI processes distributed on     1 nodes
     R & G space division:  proc/nbgrp/npool/nimage =       4
     286640 MiB available memory on the printing compute node when the environment starts
 
     Reading input from 007.in

     Current dimensions of program PWSCF are:
     Max number of different atomic species (ntypx) = 10
     Max number of k-points (npk) =  40000
     Max angular momentum in pseudopotentials (lmaxx) =  4
     file O.pbe-n-kjpaw_psl.0.1.UPF: wavefunction(s)  2P renormalized

     gamma-point specific algorithms are used

     Subspace diagonalization in iterative solution of the eigenvalue problem:
     a serial algorithm will be used

 
     Parallelization info
     --------------------
     sticks:   dense  smooth     PW     G-vecs:    dense   smooth      PW
     Min        8460    4232   1055              1171559   414184   51727
     Max        8464    4233   1058              1171560   414187   51730
     Sum       33849   16929   4229              4686239  1656739  206917
 
     Using Slab Decomposition
 


     bravais-lattice index     =            1
     lattice parameter (alat)  =      29.7726  a.u.
     unit-cell volume          =   26390.7555 (a.u.)^3
     number of atoms/cell      =          141
     number of atomic types    =            2
     number of electrons       =       376.00
     number of Kohn-Sham states=          188
     kinetic-energy cutoff     =      60.0000  Ry
     charge density cutoff     =     480.0000  Ry
     scf convergence threshold =      1.0E-10
     mixing beta               =       0.7000
     number of iterations used =            8  plain     mixing
     Exchange-correlation= SLA  PW   PBX  PBC
                           (   1   4   3   4   0   0   0)

     GPU acceleration is ACTIVE.


     GPU used by master process:

        Device Number: 0
        Device name: Tesla V100-SXM2-16GB
        Compute capability : 70
        Ratio of single to double precision performance  : 2
        Memory Clock Rate (KHz): 877000
        Memory Bus Width (bits): 4096
        Peak Memory Bandwidth (GB/s): 898.05

     celldm(1)=  29.772635  celldm(2)=   0.000000  celldm(3)=   0.000000
     celldm(4)=   0.000000  celldm(5)=   0.000000  celldm(6)=   0.000000

     crystal axes: (cart. coord. in units of alat)
               a(1) = (   1.000000   0.000000   0.000000 )  
               a(2) = (   0.000000   1.000000   0.000000 )  
               a(3) = (   0.000000   0.000000   1.000000 )  

     reciprocal axes: (cart. coord. in units 2 pi/alat)
               b(1) = (  1.000000  0.000000  0.000000 )  
               b(2) = (  0.000000  1.000000  0.000000 )  
               b(3) = (  0.000000  0.000000  1.000000 )  


     PseudoPot. # 1 for H  read from file:
     ./H.pbe-rrkjus_psl.1.0.0.UPF
     MD5 check sum: f52b6d4d1c606e5624b1dc7b2218f220
     Pseudo is Ultrasoft, Zval =  1.0
     Generated using "atomic" code by A. Dal Corso  v.5.1
     Using radial grid of  929 points,  2 beta functions with: 
                l(1) =   0
                l(2) =   0
     Q(r) pseudized with 0 coefficients 


     PseudoPot. # 2 for O  read from file:
     ./O.pbe-n-kjpaw_psl.0.1.UPF
     MD5 check sum: 0234752ac141de4415c5fc33072bef88
     Pseudo is Projector augmented-wave + core cor, Zval =  6.0
     Generated using "atomic" code by A. Dal Corso  v.5.0.99 svn rev. 10869
     Shape of augmentation charge: BESSEL
     Using radial grid of 1095 points,  4 beta functions with: 
                l(1) =   0
                l(2) =   0
                l(3) =   1
                l(4) =   1
     Q(r) pseudized with 0 coefficients 


     atomic species   valence    mass     pseudopotential
        H              1.00     1.00000     H ( 1.00)
        O              6.00    16.00000     O ( 1.00)

     No symmetry found


                                    s                        frac. trans.

      isym =  1     identity                                     

 cryst.   s( 1) = (     1          0          0      )
                  (     0          1          0      )
                  (     0          0          1      )

 cart.    s( 1) = (  1.0000000  0.0000000  0.0000000 )
                  (  0.0000000  1.0000000  0.0000000 )
                  (  0.0000000  0.0000000  1.0000000 )


     point group C_1 (1)    
     there are  1 classes
     the character table:

       E    
A      1.00

     the symmetry operations in each class and the name of the first element:

     E        1
          identity                                               

   Cartesian axes

     site n.     atom                  positions (alat units)
         1           O   tau(   1) = (   0.0563542   0.2157321   0.3443262  )
         2           H   tau(   2) = (   0.0982456   0.2375665   0.3866620  )
         3           H   tau(   3) = (   0.0867572   0.1823459   0.2997690  )
         4           O   tau(   4) = (   0.2164303   0.1985313  -0.2924557  )
         5           H   tau(   5) = (   0.2739994   0.1997372  -0.2656515  )
         6           H   tau(   6) = (   0.1819016   0.1520698  -0.2663751  )
         7           O   tau(   7) = (  -0.1509514   0.2020222   0.0344564  )
         8           H   tau(   8) = (  -0.1347851   0.2033551  -0.0269337  )
         9           H   tau(   9) = (  -0.1953881   0.1575919   0.0435963  )
        10           O   tau(  10) = (   0.0537518   0.3183662  -0.0788600  )
        11           H   tau(  11) = (   0.0781250   0.2809178  -0.0338077  )
        12           H   tau(  12) = (   0.1000863   0.3530219  -0.1049470  )
        13           O   tau(  13) = (   0.0249356   0.0212542  -0.2781111  )
        14           H   tau(  14) = (   0.0786328   0.0298864  -0.2454421  )
        15           H   tau(  15) = (  -0.0230682   0.0497531  -0.2478794  )
        16           O   tau(  16) = (  -0.0278096   0.0635265   0.0608607  )
        17           H   tau(  17) = (  -0.0585808   0.0090549   0.0501339  )
        18           H   tau(  18) = (  -0.0698534   0.1096071   0.0724126  )
        19           O   tau(  19) = (  -0.0919162  -0.0839061  -0.1596344  )
        20           H   tau(  20) = (  -0.0298343  -0.0753564  -0.1495678  )
        21           H   tau(  21) = (  -0.1161752  -0.0322209  -0.1873589  )
        22           O   tau(  22) = (   0.0314097   0.0209368   0.2197944  )
        23           H   tau(  23) = (   0.0257607   0.0503878   0.1638756  )
        24           H   tau(  24) = (  -0.0093393  -0.0276446   0.2223332  )
        25           O   tau(  25) = (  -0.1384856  -0.0836077   0.0104640  )
        26           H   tau(  26) = (  -0.1954516  -0.0606500   0.0264589  )
        27           H   tau(  27) = (  -0.1306341  -0.0788283  -0.0523669  )
        28           O   tau(  28) = (  -0.2461847  -0.0422748   0.2151609  )
        29           H   tau(  29) = (  -0.2678223  -0.0284951   0.2732377  )
        30           H   tau(  30) = (  -0.1849724  -0.0586696   0.2187788  )
        31           O   tau(  31) = (  -0.2228778   0.1146849  -0.3190441  )
        32           H   tau(  32) = (  -0.2847947   0.1136693  -0.3329445  )
        33           H   tau(  33) = (  -0.1901644   0.1347420  -0.3695868  )
        34           O   tau(  34) = (  -0.2155785  -0.2662672   0.1577823  )
        35           H   tau(  35) = (  -0.2599073  -0.2274795   0.1341073  )
        36           H   tau(  36) = (  -0.1593424  -0.2524557   0.1317588  )
        37           O   tau(  37) = (   0.2359162  -0.2554262   0.0214446  )
        38           H   tau(  38) = (   0.2795214  -0.2578635   0.0674618  )
        39           H   tau(  39) = (   0.1840597  -0.2258229   0.0429616  )
        40           O   tau(  40) = (  -0.1135474   0.2418191   0.2908194  )
        41           H   tau(  41) = (  -0.0509832   0.2460083   0.3005941  )
        42           H   tau(  42) = (  -0.1414878   0.2177632   0.3424856  )
        43           O   tau(  43) = (  -0.1081650   0.0908194  -0.1919733  )
        44           H   tau(  44) = (  -0.0992218   0.1463573  -0.1626239  )
        45           H   tau(  45) = (  -0.1480317   0.0988169  -0.2407071  )
        46           O   tau(  46) = (   0.2863764   0.1950403   0.1051006  )
        47           H   tau(  47) = (   0.2478489   0.2421999   0.0872650  )
        48           H   tau(  48) = (   0.3392485   0.2192866   0.1304259  )
        49           O   tau(  49) = (   0.2840279  -0.2791774  -0.1418242  )
        50           H   tau(  50) = (   0.2345198  -0.3026557  -0.1737886  )
        51           H   tau(  51) = (   0.2693659  -0.2747915  -0.0802374  )
        52           O   tau(  52) = (   0.2314097  -0.0892567  -0.0183205  )
        53           H   tau(  53) = (   0.1753640  -0.0748486  -0.0443948  )
        54           H   tau(  54) = (   0.2460083  -0.1495931  -0.0315481  )
        55           O   tau(  55) = (  -0.0689013  -0.2152993   0.0920254  )
        56           H   tau(  56) = (  -0.0894281  -0.1667750   0.0566715  )
        57           H   tau(  57) = (  -0.0386062  -0.2570892   0.0550847  )
        58           O   tau(  58) = (   0.1674935   0.0639708  -0.1774383  )
        59           H   tau(  59) = (   0.2275379   0.0525459  -0.1944424  )
        60           H   tau(  60) = (   0.1660336   0.0845357  -0.1174065  )
        61           O   tau(  61) = (  -0.2554706   0.0733646   0.0904386  )
        62           H   tau(  62) = (  -0.2604468   0.0373126   0.1424221  )
        63           H   tau(  63) = (  -0.3134586   0.0890422   0.0699372  )
        64           O   tau(  64) = (  -0.3157118  -0.1691615  -0.0829794  )
        65           H   tau(  65) = (  -0.3241726  -0.1559594  -0.0214751  )
        66           H   tau(  66) = (  -0.2960482  -0.1169813  -0.1132999  )
        67           O   tau(  67) = (  -0.0880571  -0.1022939   0.2312828  )
        68           H   tau(  68) = (  -0.0826620  -0.1505008   0.1903434  )
        69           H   tau(  69) = (  -0.0759975  -0.1229921   0.2900578  )
        70           O   tau(  70) = (   0.2745706   0.0127490   0.1065605  )
        71           H   tau(  71) = (   0.2644786   0.0746976   0.0970397  )
        72           H   tau(  72) = (   0.2509591  -0.0202628   0.0578140  )
        73           O   tau(  73) = (   0.1381695   0.2682234   0.0682234  )
        74           H   tau(  74) = (   0.0955163   0.2431520   0.1079568  )
        75           H   tau(  75) = (   0.1242056   0.3292199   0.0578775  )
        76           O   tau(  76) = (  -0.2192409  -0.3738458   0.0187153  )
        77           H   tau(  77) = (  -0.1741631  -0.3394123  -0.0097836  )
        78           H   tau(  78) = (  -0.2075367  -0.3766258   0.0810447  )
        79           O   tau(  79) = (  -0.3258293  -0.1354199   0.0967223  )
        80           H   tau(  80) = (  -0.3859626  -0.1530016   0.1068778  )
        81           H   tau(  81) = (  -0.3094154  -0.0908245   0.1388042  )
        82           O   tau(  82) = (   0.3428664   0.0489914  -0.2045217  )
        83           H   tau(  83) = (   0.3532123   0.0052656  -0.2493520  )
        84           H   tau(  84) = (   0.3393754   0.0206830  -0.1478032  )
        85           O   tau(  85) = (  -0.0979968   0.2486741  -0.1287744  )
        86           H   tau(  86) = (  -0.1177429   0.2792675  -0.1807515  )
        87           H   tau(  87) = (  -0.0414878   0.2714605  -0.1109959  )
        88           O   tau(  88) = (  -0.0497709   0.3458496  -0.2908689  )
        89           H   tau(  89) = (   0.0090676   0.3222380  -0.2933380  )
        90           H   tau(  90) = (  -0.0469844   0.4090676  -0.2856769  )
        91           O   tau(  91) = (   0.1210955  -0.3481206  -0.0968543  )
        92           H   tau(  92) = (   0.1443897  -0.3998629  -0.1252834  )
        93           H   tau(  93) = (   0.1386138  -0.3477969  -0.0358515  )
        94           O   tau(  94) = (  -0.0939727   0.0574332   0.3759987  )
        95           H   tau(  95) = (  -0.0542076   0.0852974   0.4168112  )
        96           H   tau(  96) = (  -0.0606119   0.0251895   0.3326474  )
        97           O   tau(  97) = (   0.2032282  -0.1424462  -0.2444519  )
        98           H   tau(  98) = (   0.2305846  -0.1078413  -0.2901073  )
        99           H   tau(  99) = (   0.2468969  -0.1792663  -0.2167972  )
       100           O   tau( 100) = (  -0.2933570   0.0103116  -0.1287045  )
       101           H   tau( 101) = (  -0.2355912   0.0365509  -0.1272129  )
       102           H   tau( 102) = (  -0.3344487   0.0510225  -0.1547851  )
       103           O   tau( 103) = (  -0.0473780  -0.3322209  -0.0324430  )
       104           H   tau( 104) = (  -0.0848708  -0.3556801  -0.0779651  )
       105           H   tau( 105) = (   0.0128759  -0.3324303  -0.0524557  )
       106           O   tau( 106) = (  -0.4143599   0.1045928   0.0202387  )
       107           H   tau( 107) = (  -0.4421987   0.1485154  -0.0161308  )
       108           H   tau( 108) = (  -0.4365243   0.0471507   0.0046880  )
       109           O   tau( 109) = (   0.1337899   0.1089724  -0.0195900  )
       110           H   tau( 110) = (   0.1537836   0.1609559   0.0108448  )
       111           H   tau( 111) = (   0.0827585   0.0854243   0.0099562  )
       112           O   tau( 112) = (  -0.0713005  -0.2446233  -0.2330079  )
       113           H   tau( 113) = (  -0.0771082  -0.1835950  -0.2165624  )
       114           H   tau( 114) = (  -0.0098470  -0.2605484  -0.2338965  )
       115           O   tau( 115) = (   0.2089407  -0.0505008   0.2627014  )
       116           H   tau( 116) = (   0.2494357  -0.0412529   0.2146531  )
       117           H   tau( 117) = (   0.1493405  -0.0464386   0.2411844  )
       118           O   tau( 118) = (  -0.0488442  -0.1013672  -0.3818813  )
       119           H   tau( 119) = (  -0.0814878  -0.0678921  -0.4248010  )
       120           H   tau( 120) = (  -0.0148613  -0.0618750  -0.3456579  )
       121           O   tau( 121) = (  -0.1993297   0.3843136   0.0641612  )
       122           H   tau( 122) = (  -0.1554833   0.4169381   0.0964050  )
       123           H   tau( 123) = (  -0.1754706   0.3280140   0.0470238  )
       124           O   tau( 124) = (   0.1828537   0.1362653   0.2705084  )
       125           H   tau( 125) = (   0.2112891   0.1511812   0.2157956  )
       126           H   tau( 126) = (   0.1539740   0.0800292   0.2647325  )
       127           O   tau( 127) = (   0.1019270  -0.2459118   0.2724126  )
       128           H   tau( 128) = (   0.1418508  -0.2949502   0.2668905  )
       129           H   tau( 129) = (   0.0443580  -0.2672129   0.2884710  )
       130           O   tau( 130) = (   0.3864716  -0.0312434  -0.0557055  )
       131           H   tau( 131) = (   0.3312510  -0.0573558  -0.0385109  )
       132           H   tau( 132) = (   0.4308385  -0.0453278  -0.0125763  )
       133           O   tau( 133) = (   0.1005306  -0.1515354   0.1165890  )
       134           H   tau( 134) = (   0.0385820  -0.1546646   0.1031330  )
       135           H   tau( 135) = (   0.1103688  -0.1714211   0.1760622  )
       136           O   tau( 136) = (   0.0896769  -0.0963529  -0.1240076  )
       137           H   tau( 137) = (   0.1048467  -0.0381047  -0.1441536  )
       138           H   tau( 138) = (   0.1251577  -0.1392091  -0.1545820  )
       139           O   tau( 139) = (  -0.0169749   0.2182076   0.1290930  )
       140           H   tau( 140) = (  -0.0388093   0.2075443   0.1877410  )
       141           H   tau( 141) = (  -0.0657341   0.2296960   0.0901212  )

   Crystallographic axes

     site n.     atom                  positions (cryst. coord.)
         1           O   tau(   1) = (  0.0563542  0.2157321  0.3443262  )
         2           H   tau(   2) = (  0.0982456  0.2375665  0.3866620  )
         3           H   tau(   3) = (  0.0867572  0.1823459  0.2997690  )
         4           O   tau(   4) = (  0.2164303  0.1985313 -0.2924557  )
         5           H   tau(   5) = (  0.2739994  0.1997372 -0.2656515  )
         6           H   tau(   6) = (  0.1819016  0.1520698 -0.2663751  )
         7           O   tau(   7) = ( -0.1509514  0.2020222  0.0344564  )
         8           H   tau(   8) = ( -0.1347851  0.2033551 -0.0269337  )
         9           H   tau(   9) = ( -0.1953881  0.1575919  0.0435963  )
        10           O   tau(  10) = (  0.0537518  0.3183662 -0.0788600  )
        11           H   tau(  11) = (  0.0781250  0.2809178 -0.0338077  )
        12           H   tau(  12) = (  0.1000863  0.3530219 -0.1049470  )
        13           O   tau(  13) = (  0.0249356  0.0212542 -0.2781111  )
        14           H   tau(  14) = (  0.0786328  0.0298864 -0.2454421  )
        15           H   tau(  15) = ( -0.0230682  0.0497531 -0.2478794  )
        16           O   tau(  16) = ( -0.0278096  0.0635265  0.0608607  )
        17           H   tau(  17) = ( -0.0585808  0.0090549  0.0501339  )
        18           H   tau(  18) = ( -0.0698534  0.1096071  0.0724126  )
        19           O   tau(  19) = ( -0.0919162 -0.0839061 -0.1596344  )
        20           H   tau(  20) = ( -0.0298343 -0.0753564 -0.1495678  )
        21           H   tau(  21) = ( -0.1161752 -0.0322209 -0.1873589  )
        22           O   tau(  22) = (  0.0314097  0.0209368  0.2197944  )
        23           H   tau(  23) = (  0.0257607  0.0503878  0.1638756  )
        24           H   tau(  24) = ( -0.0093393 -0.0276446  0.2223332  )
        25           O   tau(  25) = ( -0.1384856 -0.0836077  0.0104640  )
        26           H   tau(  26) = ( -0.1954516 -0.0606500  0.0264589  )
        27           H   tau(  27) = ( -0.1306341 -0.0788283 -0.0523669  )
        28           O   tau(  28) = ( -0.2461847 -0.0422748  0.2151609  )
        29           H   tau(  29) = ( -0.2678223 -0.0284951  0.2732377  )
        30           H   tau(  30) = ( -0.1849724 -0.0586696  0.2187788  )
        31           O   tau(  31) = ( -0.2228778  0.1146849 -0.3190441  )
        32           H   tau(  32) = ( -0.2847947  0.1136693 -0.3329445  )
        33           H   tau(  33) = ( -0.1901644  0.1347420 -0.3695868  )
        34           O   tau(  34) = ( -0.2155785 -0.2662672  0.1577823  )
        35           H   tau(  35) = ( -0.2599073 -0.2274795  0.1341073  )
        36           H   tau(  36) = ( -0.1593424 -0.2524557  0.1317588  )
        37           O   tau(  37) = (  0.2359162 -0.2554262  0.0214446  )
        38           H   tau(  38) = (  0.2795214 -0.2578635  0.0674618  )
        39           H   tau(  39) = (  0.1840597 -0.2258229  0.0429616  )
        40           O   tau(  40) = ( -0.1135474  0.2418191  0.2908194  )
        41           H   tau(  41) = ( -0.0509832  0.2460083  0.3005941  )
        42           H   tau(  42) = ( -0.1414878  0.2177632  0.3424856  )
        43           O   tau(  43) = ( -0.1081650  0.0908194 -0.1919733  )
        44           H   tau(  44) = ( -0.0992218  0.1463573 -0.1626239  )
        45           H   tau(  45) = ( -0.1480317  0.0988169 -0.2407071  )
        46           O   tau(  46) = (  0.2863764  0.1950403  0.1051006  )
        47           H   tau(  47) = (  0.2478489  0.2421999  0.0872650  )
        48           H   tau(  48) = (  0.3392485  0.2192866  0.1304259  )
        49           O   tau(  49) = (  0.2840279 -0.2791774 -0.1418242  )
        50           H   tau(  50) = (  0.2345198 -0.3026557 -0.1737886  )
        51           H   tau(  51) = (  0.2693659 -0.2747915 -0.0802374  )
        52           O   tau(  52) = (  0.2314097 -0.0892567 -0.0183205  )
        53           H   tau(  53) = (  0.1753640 -0.0748486 -0.0443948  )
        54           H   tau(  54) = (  0.2460083 -0.1495931 -0.0315481  )
        55           O   tau(  55) = ( -0.0689013 -0.2152993  0.0920254  )
        56           H   tau(  56) = ( -0.0894281 -0.1667750  0.0566715  )
        57           H   tau(  57) = ( -0.0386062 -0.2570892  0.0550847  )
        58           O   tau(  58) = (  0.1674935  0.0639708 -0.1774383  )
        59           H   tau(  59) = (  0.2275379  0.0525459 -0.1944424  )
        60           H   tau(  60) = (  0.1660336  0.0845357 -0.1174065  )
        61           O   tau(  61) = ( -0.2554706  0.0733646  0.0904386  )
        62           H   tau(  62) = ( -0.2604468  0.0373126  0.1424221  )
        63           H   tau(  63) = ( -0.3134586  0.0890422  0.0699372  )
        64           O   tau(  64) = ( -0.3157118 -0.1691615 -0.0829794  )
        65           H   tau(  65) = ( -0.3241726 -0.1559594 -0.0214751  )
        66           H   tau(  66) = ( -0.2960482 -0.1169813 -0.1132999  )
        67           O   tau(  67) = ( -0.0880571 -0.1022939  0.2312828  )
        68           H   tau(  68) = ( -0.0826620 -0.1505008  0.1903434  )
        69           H   tau(  69) = ( -0.0759975 -0.1229921  0.2900578  )
        70           O   tau(  70) = (  0.2745706  0.0127490  0.1065605  )
        71           H   tau(  71) = (  0.2644786  0.0746976  0.0970397  )
        72           H   tau(  72) = (  0.2509591 -0.0202628  0.0578140  )
        73           O   tau(  73) = (  0.1381695  0.2682234  0.0682234  )
        74           H   tau(  74) = (  0.0955163  0.2431520  0.1079568  )
        75           H   tau(  75) = (  0.1242056  0.3292199  0.0578775  )
        76           O   tau(  76) = ( -0.2192409 -0.3738458  0.0187153  )
        77           H   tau(  77) = ( -0.1741631 -0.3394123 -0.0097836  )
        78           H   tau(  78) = ( -0.2075367 -0.3766258  0.0810447  )
        79           O   tau(  79) = ( -0.3258293 -0.1354199  0.0967223  )
        80           H   tau(  80) = ( -0.3859626 -0.1530016  0.1068778  )
        81           H   tau(  81) = ( -0.3094154 -0.0908245  0.1388042  )
        82           O   tau(  82) = (  0.3428664  0.0489914 -0.2045217  )
        83           H   tau(  83) = (  0.3532123  0.0052656 -0.2493520  )
        84           H   tau(  84) = (  0.3393754  0.0206830 -0.1478032  )
        85           O   tau(  85) = ( -0.0979968  0.2486741 -0.1287744  )
        86           H   tau(  86) = ( -0.1177429  0.2792675 -0.1807515  )
        87           H   tau(  87) = ( -0.0414878  0.2714605 -0.1109959  )
        88           O   tau(  88) = ( -0.0497709  0.3458496 -0.2908689  )
        89           H   tau(  89) = (  0.0090676  0.3222380 -0.2933380  )
        90           H   tau(  90) = ( -0.0469844  0.4090676 -0.2856769  )
        91           O   tau(  91) = (  0.1210955 -0.3481206 -0.0968543  )
        92           H   tau(  92) = (  0.1443897 -0.3998629 -0.1252834  )
        93           H   tau(  93) = (  0.1386138 -0.3477969 -0.0358515  )
        94           O   tau(  94) = ( -0.0939727  0.0574332  0.3759987  )
        95           H   tau(  95) = ( -0.0542076  0.0852974  0.4168112  )
        96           H   tau(  96) = ( -0.0606119  0.0251895  0.3326474  )
        97           O   tau(  97) = (  0.2032282 -0.1424462 -0.2444519  )
        98           H   tau(  98) = (  0.2305846 -0.1078413 -0.2901073  )
        99           H   tau(  99) = (  0.2468969 -0.1792663 -0.2167972  )
       100           O   tau( 100) = ( -0.2933570  0.0103116 -0.1287045  )
       101           H   tau( 101) = ( -0.2355912  0.0365509 -0.1272129  )
       102           H   tau( 102) = ( -0.3344487  0.0510225 -0.1547851  )
       103           O   tau( 103) = ( -0.0473780 -0.3322209 -0.0324430  )
       104           H   tau( 104) = ( -0.0848708 -0.3556801 -0.0779651  )
       105           H   tau( 105) = (  0.0128759 -0.3324303 -0.0524557  )
       106           O   tau( 106) = ( -0.4143599  0.1045928  0.0202387  )
       107           H   tau( 107) = ( -0.4421987  0.1485154 -0.0161308  )
       108           H   tau( 108) = ( -0.4365243  0.0471507  0.0046880  )
       109           O   tau( 109) = (  0.1337899  0.1089724 -0.0195900  )
       110           H   tau( 110) = (  0.1537836  0.1609559  0.0108448  )
       111           H   tau( 111) = (  0.0827585  0.0854243  0.0099562  )
       112           O   tau( 112) = ( -0.0713005 -0.2446233 -0.2330079  )
       113           H   tau( 113) = ( -0.0771082 -0.1835950 -0.2165624  )
       114           H   tau( 114) = ( -0.0098470 -0.2605484 -0.2338965  )
       115           O   tau( 115) = (  0.2089407 -0.0505008  0.2627014  )
       116           H   tau( 116) = (  0.2494357 -0.0412529  0.2146531  )
       117           H   tau( 117) = (  0.1493405 -0.0464386  0.2411844  )
       118           O   tau( 118) = ( -0.0488442 -0.1013672 -0.3818813  )
       119           H   tau( 119) = ( -0.0814878 -0.0678921 -0.4248010  )
       120           H   tau( 120) = ( -0.0148613 -0.0618750 -0.3456579  )
       121           O   tau( 121) = ( -0.1993297  0.3843136  0.0641612  )
       122           H   tau( 122) = ( -0.1554833  0.4169381  0.0964050  )
       123           H   tau( 123) = ( -0.1754706  0.3280140  0.0470238  )
       124           O   tau( 124) = (  0.1828537  0.1362653  0.2705084  )
       125           H   tau( 125) = (  0.2112891  0.1511812  0.2157956  )
       126           H   tau( 126) = (  0.1539740  0.0800292  0.2647325  )
       127           O   tau( 127) = (  0.1019270 -0.2459118  0.2724126  )
       128           H   tau( 128) = (  0.1418508 -0.2949502  0.2668905  )
       129           H   tau( 129) = (  0.0443580 -0.2672129  0.2884710  )
       130           O   tau( 130) = (  0.3864716 -0.0312434 -0.0557055  )
       131           H   tau( 131) = (  0.3312510 -0.0573558 -0.0385109  )
       132           H   tau( 132) = (  0.4308385 -0.0453278 -0.0125763  )
       133           O   tau( 133) = (  0.1005306 -0.1515354  0.1165890  )
       134           H   tau( 134) = (  0.0385820 -0.1546646  0.1031330  )
       135           H   tau( 135) = (  0.1103688 -0.1714211  0.1760622  )
       136           O   tau( 136) = (  0.0896769 -0.0963529 -0.1240076  )
       137           H   tau( 137) = (  0.1048467 -0.0381047 -0.1441536  )
       138           H   tau( 138) = (  0.1251577 -0.1392091 -0.1545820  )
       139           O   tau( 139) = ( -0.0169749  0.2182076  0.1290930  )
       140           H   tau( 140) = ( -0.0388093  0.2075443  0.1877410  )
       141           H   tau( 141) = ( -0.0657341  0.2296960  0.0901212  )

     number of k points=     1
                       cart. coord. in units 2pi/alat
        k(    1) = (   0.0000000   0.0000000   0.0000000), wk =   2.0000000

                       cryst. coord.
        k(    1) = (   0.0000000   0.0000000   0.0000000), wk =   2.0000000

     Dense  grid:  2343120 G-vectors     FFT dimensions: ( 216, 216, 216)

     Smooth grid:   828370 G-vectors     FFT dimensions: ( 150, 150, 150)

     Dynamical RAM for                 wfc:      74.27 MB

     Dynamical RAM for     wfc (w. buffer):      74.27 MB

     Dynamical RAM for           str. fact:      17.88 MB

     Dynamical RAM for           local pot:       0.00 MB

     Dynamical RAM for          nlocal pot:     222.81 MB

     Dynamical RAM for                qrad:       1.00 MB

     Dynamical RAM for          rho,v,vnew:      84.48 MB

     Dynamical RAM for               rhoin:      28.16 MB

     Dynamical RAM for            rho*nmix:     143.01 MB

     Dynamical RAM for           G-vectors:      35.10 MB

     Dynamical RAM for          h,s,v(r/c):       3.24 MB

     Dynamical RAM for          <psi|beta>:       0.81 MB

     Dynamical RAM for                 psi:     148.54 MB

     Dynamical RAM for                hpsi:     148.54 MB

     Dynamical RAM for                spsi:     148.54 MB

     Dynamical RAM for      wfcinit/wfcrot:     224.63 MB

     Dynamical RAM for           addusdens:    1224.55 MB

     Dynamical RAM for          addusforce:    2891.62 MB

     Estimated static dynamical RAM per process >     586.62 MB

     Estimated max dynamical RAM per process >       3.54 GB

     Estimated total dynamical RAM >      14.15 GB

     Initial potential from superposition of free atoms

     starting charge  375.99904, renormalised to  376.00000

     negative rho (up, down):  7.585E-04 0.000E+00
     Starting wfcs are  282 randomized atomic wfcs
     Checking if some PAW data can be deallocated... 

     total cpu time spent up to now is        4.6 secs

     per-process dynamical memory:  1177.6 Mb

     Self-consistent Calculation
[tb_dev] Currently allocated     2.12E+02 Mbytes, locked:    0 /   9
[tb_pin] Currently allocated     0.00E+00 Mbytes, locked:    0 /   0

     iteration #  1     ecut=    60.00 Ry     beta= 0.70
     Davidson diagonalization with overlap

---- Real-time Memory Report at c_bands before calling an iterative solver
          2079 MiB given to the printing process from OS
          1179 MiB allocation reported by mallinfo(arena+hblkhd)
        275507 MiB available memory on the node where the printing process lives
     GPU memory used/free/total (MiB): 1792 / 14368 / 16160
------------------
     ethr =  1.00E-02,  avg # of iterations =  2.0

     negative rho (up, down):  2.068E-03 0.000E+00

     total cpu time spent up to now is        6.5 secs

     total energy              =   -2062.55599734 Ry
     estimated scf accuracy    <      18.00315093 Ry
[tb_dev] Currently allocated     1.43E+03 Mbytes, locked:    0 /  15
[tb_pin] Currently allocated     8.94E+00 Mbytes, locked:    0 /   1

     iteration #  2     ecut=    60.00 Ry     beta= 0.70
     Davidson diagonalization with overlap

---- Real-time Memory Report at c_bands before calling an iterative solver
          2426 MiB given to the printing process from OS
          1264 MiB allocation reported by mallinfo(arena+hblkhd)
        270257 MiB available memory on the node where the printing process lives
     GPU memory used/free/total (MiB): 3020 / 13140 / 16160
------------------
     ethr =  4.79E-03,  avg # of iterations =  3.0

     negative rho (up, down):  1.992E-03 0.000E+00

     total cpu time spent up to now is        8.4 secs

     total energy              =   -2068.02982616 Ry
     estimated scf accuracy    <      14.43858879 Ry
[tb_dev] Currently allocated     1.43E+03 Mbytes, locked:    0 /  15
[tb_pin] Currently allocated     8.94E+00 Mbytes, locked:    0 /   1

     iteration #  3     ecut=    60.00 Ry     beta= 0.70
     Davidson diagonalization with overlap

---- Real-time Memory Report at c_bands before calling an iterative solver
          2442 MiB given to the printing process from OS
          1283 MiB allocation reported by mallinfo(arena+hblkhd)
        270152 MiB available memory on the node where the printing process lives
     GPU memory used/free/total (MiB): 3020 / 13140 / 16160
------------------
     ethr =  3.84E-03,  avg # of iterations =  2.0

     negative rho (up, down):  1.804E-03 0.000E+00

     total cpu time spent up to now is       10.2 secs

     total energy              =   -2070.09033803 Ry
     estimated scf accuracy    <       0.53545899 Ry
[tb_dev] Currently allocated     1.43E+03 Mbytes, locked:    0 /  15
[tb_pin] Currently allocated     8.94E+00 Mbytes, locked:    0 /   1

     iteration #  4     ecut=    60.00 Ry     beta= 0.70
     Davidson diagonalization with overlap

---- Real-time Memory Report at c_bands before calling an iterative solver
          2461 MiB given to the printing process from OS
          1301 MiB allocation reported by mallinfo(arena+hblkhd)
        270045 MiB available memory on the node where the printing process lives
     GPU memory used/free/total (MiB): 3020 / 13140 / 16160
------------------
     ethr =  1.42E-04,  avg # of iterations =  4.0

     negative rho (up, down):  2.267E-03 0.000E+00

     total cpu time spent up to now is       12.0 secs

     total energy              =   -2070.56412168 Ry
     estimated scf accuracy    <       0.62360301 Ry
[tb_dev] Currently allocated     1.43E+03 Mbytes, locked:    0 /  15
[tb_pin] Currently allocated     8.94E+00 Mbytes, locked:    0 /   1

     iteration #  5     ecut=    60.00 Ry     beta= 0.70
     Davidson diagonalization with overlap

---- Real-time Memory Report at c_bands before calling an iterative solver
          2478 MiB given to the printing process from OS
          1315 MiB allocation reported by mallinfo(arena+hblkhd)
        269984 MiB available memory on the node where the printing process lives
     GPU memory used/free/total (MiB): 3020 / 13140 / 16160
------------------
     ethr =  1.42E-04,  avg # of iterations =  2.0

     negative rho (up, down):  2.380E-03 0.000E+00

     total cpu time spent up to now is       13.6 secs

     total energy              =   -2070.57359805 Ry
     estimated scf accuracy    <       0.15536566 Ry
[tb_dev] Currently allocated     1.43E+03 Mbytes, locked:    0 /  15
[tb_pin] Currently allocated     8.94E+00 Mbytes, locked:    0 /   1

     iteration #  6     ecut=    60.00 Ry     beta= 0.70
     Davidson diagonalization with overlap

---- Real-time Memory Report at c_bands before calling an iterative solver
          2489 MiB given to the printing process from OS
          1330 MiB allocation reported by mallinfo(arena+hblkhd)
        269931 MiB available memory on the node where the printing process lives
     GPU memory used/free/total (MiB): 3020 / 13140 / 16160
------------------
     ethr =  4.13E-05,  avg # of iterations =  2.0

     negative rho (up, down):  2.414E-03 0.000E+00

     total cpu time spent up to now is       15.2 secs

     total energy              =   -2070.57059232 Ry
     estimated scf accuracy    <       0.06368551 Ry
[tb_dev] Currently allocated     1.43E+03 Mbytes, locked:    0 /  15
[tb_pin] Currently allocated     8.94E+00 Mbytes, locked:    0 /   1

     iteration #  7     ecut=    60.00 Ry     beta= 0.70
     Davidson diagonalization with overlap

---- Real-time Memory Report at c_bands before calling an iterative solver
          2513 MiB given to the printing process from OS
          1348 MiB allocation reported by mallinfo(arena+hblkhd)
        269856 MiB available memory on the node where the printing process lives
     GPU memory used/free/total (MiB): 3020 / 13140 / 16160
------------------
     ethr =  1.69E-05,  avg # of iterations =  2.0

     negative rho (up, down):  2.468E-03 0.000E+00

     total cpu time spent up to now is       16.8 secs

     total energy              =   -2070.56250354 Ry
     estimated scf accuracy    <       0.02822486 Ry
[tb_dev] Currently allocated     1.43E+03 Mbytes, locked:    0 /  15
[tb_pin] Currently allocated     8.94E+00 Mbytes, locked:    0 /   1

     iteration #  8     ecut=    60.00 Ry     beta= 0.70
     Davidson diagonalization with overlap

---- Real-time Memory Report at c_bands before calling an iterative solver
          2521 MiB given to the printing process from OS
          1363 MiB allocation reported by mallinfo(arena+hblkhd)
        269804 MiB available memory on the node where the printing process lives
     GPU memory used/free/total (MiB): 3020 / 13140 / 16160
------------------
     ethr =  7.51E-06,  avg # of iterations =  3.0

     negative rho (up, down):  2.448E-03 0.000E+00

     total cpu time spent up to now is       18.6 secs

     total energy              =   -2070.56903875 Ry
     estimated scf accuracy    <       0.00063126 Ry
[tb_dev] Currently allocated     1.43E+03 Mbytes, locked:    0 /  15
[tb_pin] Currently allocated     8.94E+00 Mbytes, locked:    0 /   1

     iteration #  9     ecut=    60.00 Ry     beta= 0.70
     Davidson diagonalization with overlap

---- Real-time Memory Report at c_bands before calling an iterative solver
          2543 MiB given to the printing process from OS
          1382 MiB allocation reported by mallinfo(arena+hblkhd)
        269803 MiB available memory on the node where the printing process lives
     GPU memory used/free/total (MiB): 3020 / 13140 / 16160
------------------
     ethr =  1.68E-07,  avg # of iterations =  5.0

     negative rho (up, down):  2.421E-03 0.000E+00

     total cpu time spent up to now is       20.5 secs

     total energy              =   -2070.56973635 Ry
     estimated scf accuracy    <       0.00070636 Ry
[tb_dev] Currently allocated     1.43E+03 Mbytes, locked:    0 /  15
[tb_pin] Currently allocated     8.94E+00 Mbytes, locked:    0 /   1

     iteration # 10     ecut=    60.00 Ry     beta= 0.70
     Davidson diagonalization with overlap

---- Real-time Memory Report at c_bands before calling an iterative solver
          2554 MiB given to the printing process from OS
          1396 MiB allocation reported by mallinfo(arena+hblkhd)
        269696 MiB available memory on the node where the printing process lives
     GPU memory used/free/total (MiB): 3020 / 13140 / 16160
------------------
     ethr =  1.68E-07,  avg # of iterations =  2.0

     negative rho (up, down):  2.397E-03 0.000E+00

     total cpu time spent up to now is       22.3 secs

     total energy              =   -2070.56951607 Ry
     estimated scf accuracy    <       0.00054456 Ry
[tb_dev] Currently allocated     1.43E+03 Mbytes, locked:    0 /  15
[tb_pin] Currently allocated     8.94E+00 Mbytes, locked:    0 /   1

     iteration # 11     ecut=    60.00 Ry     beta= 0.70
     Davidson diagonalization with overlap

---- Real-time Memory Report at c_bands before calling an iterative solver
          2559 MiB given to the printing process from OS
          1405 MiB allocation reported by mallinfo(arena+hblkhd)
        269657 MiB available memory on the node where the printing process lives
     GPU memory used/free/total (MiB): 3020 / 13140 / 16160
------------------
     ethr =  1.45E-07,  avg # of iterations =  2.0

     negative rho (up, down):  2.390E-03 0.000E+00

     total cpu time spent up to now is       24.1 secs

     total energy              =   -2070.56957502 Ry
     estimated scf accuracy    <       0.00003239 Ry
[tb_dev] Currently allocated     1.43E+03 Mbytes, locked:    0 /  15
[tb_pin] Currently allocated     8.94E+00 Mbytes, locked:    0 /   1

     iteration # 12     ecut=    60.00 Ry     beta= 0.70
     Davidson diagonalization with overlap

---- Real-time Memory Report at c_bands before calling an iterative solver
          2573 MiB given to the printing process from OS
          1413 MiB allocation reported by mallinfo(arena+hblkhd)
        269606 MiB available memory on the node where the printing process lives
     GPU memory used/free/total (MiB): 3020 / 13140 / 16160
------------------
     ethr =  8.61E-09,  avg # of iterations =  3.0

     negative rho (up, down):  2.391E-03 0.000E+00

     total cpu time spent up to now is       26.0 secs

     total energy              =   -2070.56959122 Ry
     estimated scf accuracy    <       0.00000710 Ry
[tb_dev] Currently allocated     1.43E+03 Mbytes, locked:    0 /  15
[tb_pin] Currently allocated     8.94E+00 Mbytes, locked:    0 /   1

     iteration # 13     ecut=    60.00 Ry     beta= 0.70
     Davidson diagonalization with overlap

---- Real-time Memory Report at c_bands before calling an iterative solver
          2582 MiB given to the printing process from OS
          1422 MiB allocation reported by mallinfo(arena+hblkhd)
        269559 MiB available memory on the node where the printing process lives
     GPU memory used/free/total (MiB): 3020 / 13140 / 16160
------------------
     ethr =  1.89E-09,  avg # of iterations =  2.0

     negative rho (up, down):  2.392E-03 0.000E+00

     total cpu time spent up to now is       27.8 secs

     total energy              =   -2070.56958964 Ry
     estimated scf accuracy    <       0.00000527 Ry
[tb_dev] Currently allocated     1.43E+03 Mbytes, locked:    0 /  15
[tb_pin] Currently allocated     8.94E+00 Mbytes, locked:    0 /   1

     iteration # 14     ecut=    60.00 Ry     beta= 0.70
     Davidson diagonalization with overlap

---- Real-time Memory Report at c_bands before calling an iterative solver
          2593 MiB given to the printing process from OS
          1430 MiB allocation reported by mallinfo(arena+hblkhd)
        269532 MiB available memory on the node where the printing process lives
     GPU memory used/free/total (MiB): 3020 / 13140 / 16160
------------------
     ethr =  1.40E-09,  avg # of iterations =  2.0

     negative rho (up, down):  2.393E-03 0.000E+00

     total cpu time spent up to now is       29.5 secs

     total energy              =   -2070.56958976 Ry
     estimated scf accuracy    <       0.00000078 Ry
[tb_dev] Currently allocated     1.43E+03 Mbytes, locked:    0 /  15
[tb_pin] Currently allocated     8.94E+00 Mbytes, locked:    0 /   1

     iteration # 15     ecut=    60.00 Ry     beta= 0.70
     Davidson diagonalization with overlap

---- Real-time Memory Report at c_bands before calling an iterative solver
          2595 MiB given to the printing process from OS
          1452 MiB allocation reported by mallinfo(arena+hblkhd)
        269512 MiB available memory on the node where the printing process lives
     GPU memory used/free/total (MiB): 3020 / 13140 / 16160
------------------
     ethr =  2.07E-10,  avg # of iterations =  3.0

     negative rho (up, down):  2.393E-03 0.000E+00

     total cpu time spent up to now is       31.4 secs

     total energy              =   -2070.56958998 Ry
     estimated scf accuracy    <       0.00000004 Ry
[tb_dev] Currently allocated     1.43E+03 Mbytes, locked:    0 /  15
[tb_pin] Currently allocated     8.94E+00 Mbytes, locked:    0 /   1

     iteration # 16     ecut=    60.00 Ry     beta= 0.70
     Davidson diagonalization with overlap

---- Real-time Memory Report at c_bands before calling an iterative solver
          2603 MiB given to the printing process from OS
          1460 MiB allocation reported by mallinfo(arena+hblkhd)
        269434 MiB available memory on the node where the printing process lives
     GPU memory used/free/total (MiB): 3020 / 13140 / 16160
------------------
     ethr =  9.66E-12,  avg # of iterations =  5.0

     negative rho (up, down):  2.393E-03 0.000E+00

     total cpu time spent up to now is       33.3 secs

     total energy              =   -2070.56958999 Ry
     estimated scf accuracy    <       0.00000010 Ry
[tb_dev] Currently allocated     1.43E+03 Mbytes, locked:    0 /  15
[tb_pin] Currently allocated     8.94E+00 Mbytes, locked:    0 /   1

     iteration # 17     ecut=    60.00 Ry     beta= 0.70
     Davidson diagonalization with overlap

---- Real-time Memory Report at c_bands before calling an iterative solver
          2614 MiB given to the printing process from OS
          1469 MiB allocation reported by mallinfo(arena+hblkhd)
        269413 MiB available memory on the node where the printing process lives
     GPU memory used/free/total (MiB): 3020 / 13140 / 16160
------------------
     ethr =  9.66E-12,  avg # of iterations =  2.0

     negative rho (up, down):  2.393E-03 0.000E+00

     total cpu time spent up to now is       35.1 secs

     total energy              =   -2070.56958999 Ry
     estimated scf accuracy    <       0.00000002 Ry
[tb_dev] Currently allocated     1.43E+03 Mbytes, locked:    0 /  15
[tb_pin] Currently allocated     8.94E+00 Mbytes, locked:    0 /   1

     iteration # 18     ecut=    60.00 Ry     beta= 0.70
     Davidson diagonalization with overlap

---- Real-time Memory Report at c_bands before calling an iterative solver
          2627 MiB given to the printing process from OS
          1477 MiB allocation reported by mallinfo(arena+hblkhd)
        269359 MiB available memory on the node where the printing process lives
     GPU memory used/free/total (MiB): 3020 / 13140 / 16160
------------------
     ethr =  5.36E-12,  avg # of iterations =  3.0

     negative rho (up, down):  2.393E-03 0.000E+00

     total cpu time spent up to now is       37.0 secs

     total energy              =   -2070.56959000 Ry
     estimated scf accuracy    <          1.5E-09 Ry
[tb_dev] Currently allocated     1.43E+03 Mbytes, locked:    0 /  15
[tb_pin] Currently allocated     8.94E+00 Mbytes, locked:    0 /   1

     iteration # 19     ecut=    60.00 Ry     beta= 0.70
     Davidson diagonalization with overlap

---- Real-time Memory Report at c_bands before calling an iterative solver
          2636 MiB given to the printing process from OS
          1485 MiB allocation reported by mallinfo(arena+hblkhd)
        269329 MiB available memory on the node where the printing process lives
     GPU memory used/free/total (MiB): 3020 / 13140 / 16160
------------------
     ethr =  4.02E-13,  avg # of iterations =  3.0

     negative rho (up, down):  2.393E-03 0.000E+00

     total cpu time spent up to now is       38.9 secs

     total energy              =   -2070.56959000 Ry
     estimated scf accuracy    <          1.2E-09 Ry
[tb_dev] Currently allocated     1.43E+03 Mbytes, locked:    0 /  15
[tb_pin] Currently allocated     8.94E+00 Mbytes, locked:    0 /   1

     iteration # 20     ecut=    60.00 Ry     beta= 0.70
     Davidson diagonalization with overlap

---- Real-time Memory Report at c_bands before calling an iterative solver
          2641 MiB given to the printing process from OS
          1494 MiB allocation reported by mallinfo(arena+hblkhd)
        269289 MiB available memory on the node where the printing process lives
     GPU memory used/free/total (MiB): 3020 / 13140 / 16160
------------------
     ethr =  3.09E-13,  avg # of iterations =  2.0

     negative rho (up, down):  2.393E-03 0.000E+00

     total cpu time spent up to now is       40.7 secs

     total energy              =   -2070.56959000 Ry
     estimated scf accuracy    <          1.5E-10 Ry
[tb_dev] Currently allocated     1.43E+03 Mbytes, locked:    0 /  15
[tb_pin] Currently allocated     8.94E+00 Mbytes, locked:    0 /   1

     iteration # 21     ecut=    60.00 Ry     beta= 0.70
     Davidson diagonalization with overlap

---- Real-time Memory Report at c_bands before calling an iterative solver
          2646 MiB given to the printing process from OS
          1503 MiB allocation reported by mallinfo(arena+hblkhd)
        269254 MiB available memory on the node where the printing process lives
     GPU memory used/free/total (MiB): 3020 / 13140 / 16160
------------------
     ethr =  1.00E-13,  avg # of iterations =  2.0

     negative rho (up, down):  2.393E-03 0.000E+00

     total cpu time spent up to now is       42.3 secs

     End of self-consistent calculation

          k = 0.0000 0.0000 0.0000 (103459 PWs)   bands (ev):

   -25.3038 -25.2112 -25.1509 -25.0569 -24.8020 -24.6252 -24.4872 -24.3848
   -24.3225 -24.2950 -24.2721 -24.2298 -24.0965 -24.0461 -24.0369 -23.9849
   -23.9568 -23.8997 -23.8660 -23.8318 -23.7686 -23.7065 -23.6693 -23.5934
   -23.5741 -23.4780 -23.4199 -23.3116 -23.2778 -23.2115 -23.1831 -23.1383
   -23.1244 -23.0913 -22.7844 -22.7811 -22.7062 -22.6612 -22.4919 -22.3526
   -22.1986 -21.9969 -21.9097 -21.8909 -21.8409 -21.7385 -21.6512 -13.4317
   -13.2945 -13.2217 -13.1308 -12.9426 -12.8340 -12.6457 -12.5170 -12.4840
   -12.4474 -12.4255 -12.4071 -12.3445 -12.3153 -12.2633 -12.2592 -12.2165
   -12.1823 -12.0810 -12.0296 -11.9642 -11.9443 -11.8722 -11.8355 -11.8284
   -11.8104 -11.6735 -11.5967 -11.5812 -11.5182 -11.4530 -11.4310 -11.4159
   -11.3134 -11.1261 -11.1192 -10.9712 -10.9584 -10.8738 -10.7141 -10.5830
   -10.4297 -10.2372 -10.1936 -10.1597 -10.1333  -9.8940  -9.7214  -9.6896
    -9.6662  -9.5851  -9.3631  -9.3422  -9.2272  -9.0098  -8.9617  -8.9219
    -8.7673  -8.6929  -8.6608  -8.5906  -8.4801  -8.4332  -8.3565  -8.2637
    -8.2552  -8.1581  -8.1398  -8.1063  -8.0222  -7.9541  -7.9139  -7.8107
    -7.7222  -7.7053  -7.6303  -7.5951  -7.5307  -7.4510  -7.3959  -7.3732
    -7.3319  -7.2769  -7.1680  -7.1533  -7.1275  -7.0693  -7.0072  -6.9588
    -6.8996  -6.8617  -6.8054  -6.7673  -6.7001  -6.6233  -6.5609  -6.5308
    -6.4619  -6.4299  -6.4171  -6.3536  -6.3391  -6.3097  -6.2886  -6.2451
    -6.2136  -6.2008  -6.1549  -6.1339  -6.0716  -6.0451  -6.0096  -5.9917
    -5.9749  -5.9497  -5.8984  -5.8744  -5.8059  -5.7779  -5.7204  -5.6915
    -5.6431  -5.5973  -5.5710  -5.5621  -5.4757  -5.4453  -5.3599  -5.2467
    -5.1749  -5.1284  -5.0332  -4.8506  -4.6337  -4.5815  -4.4897  -4.3185
    -4.2922  -4.1174  -4.0971  -3.7373

     occupation numbers 
     1.0000   1.0000   1.0000   1.0000   1.0000   1.0000   1.0000   1.0000
     1.0000   1.0000   1.0000   1.0000   1.0000   1.0000   1.0000   1.0000
     1.0000   1.0000   1.0000   1.0000   1.0000   1.0000   1.0000   1.0000
     1.0000   1.0000   1.0000   1.0000   1.0000   1.0000   1.0000   1.0000
     1.0000   1.0000   1.0000   1.0000   1.0000   1.0000   1.0000   1.0000
     1.0000   1.0000   1.0000   1.0000   1.0000   1.0000   1.0000   1.0000
     1.0000   1.0000   1.0000   1.0000   1.0000   1.0000   1.0000   1.0000
     1.0000   1.0000   1.0000   1.0000   1.0000   1.0000   1.0000   1.0000
     1.0000   1.0000   1.0000   1.0000   1.0000   1.0000   1.0000   1.0000
     1.0000   1.0000   1.0000   1.0000   1.0000   1.0000   1.0000   1.0000
     1.0000   1.0000   1.0000   1.0000   1.0000   1.0000   1.0000   1.0000
     1.0000   1.0000   1.0000   1.0000   1.0000   1.0000   1.0000   1.0000
     1.0000   1.0000   1.0000   1.0000   1.0000   1.0000   1.0000   1.0000
     1.0000   1.0000   1.0000   1.0000   1.0000   1.0000   1.0000   1.0000
     1.0000   1.0000   1.0000   1.0000   1.0000   1.0000   1.0000   1.0000
     1.0000   1.0000   1.0000   1.0000   1.0000   1.0000   1.0000   1.0000
     1.0000   1.0000   1.0000   1.0000   1.0000   1.0000   1.0000   1.0000
     1.0000   1.0000   1.0000   1.0000   1.0000   1.0000   1.0000   1.0000
     1.0000   1.0000   1.0000   1.0000   1.0000   1.0000   1.0000   1.0000
     1.0000   1.0000   1.0000   1.0000   1.0000   1.0000   1.0000   1.0000
     1.0000   1.0000   1.0000   1.0000   1.0000   1.0000   1.0000   1.0000
     1.0000   1.0000   1.0000   1.0000   1.0000   1.0000   1.0000   1.0000
     1.0000   1.0000   1.0000   1.0000   1.0000   1.0000   1.0000   1.0000
     1.0000   1.0000   1.0000   1.0000

     highest occupied level (ev):    -3.7373

!    total energy              =   -2070.56959000 Ry
     estimated scf accuracy    <          7.6E-12 Ry

     The total energy is the sum of the following terms:
     one-electron contribution =   -5321.72567200 Ry
     hartree contribution      =    2754.42064773 Ry
     xc contribution           =    -415.19270528 Ry
     ewald contribution        =    1358.68791808 Ry
     one-center paw contrib.   =    -446.75977853 Ry
      -> PAW hartree energy AE =     340.44854360 Ry
      -> PAW hartree energy PS =    -338.82418715 Ry
      -> PAW xc energy AE      =    -204.19023233 Ry
      -> PAW xc energy PS      =      88.51111104 Ry
      -> total E_H with PAW    =    2756.04500418 Ry
      -> total E_XC with PAW   =    -530.87182658 Ry

     convergence has been achieved in  21 iterations

     negative rho (up, down):  2.393E-03 0.000E+00

     Forces acting on atoms (cartesian axes, Ry/au):

     atom    1 type  2   force =    -0.00336825    0.02010269    0.02530340
     atom    2 type  1   force =    -0.02614871   -0.02629844   -0.05011979
     atom    3 type  1   force =     0.02528042    0.01777844    0.03375620
     atom    4 type  2   force =     0.01686284   -0.00185453    0.01408514
     atom    5 type  1   force =    -0.05717556   -0.01884110   -0.01448229
     atom    6 type  1   force =     0.03889765    0.02865120    0.00064102
     atom    7 type  2   force =    -0.00465882   -0.00427586   -0.04400271
     atom    8 type  1   force =    -0.02201652    0.00394738    0.02456374
     atom    9 type  1   force =     0.01311438    0.00743210    0.01248936
     atom   10 type  2   force =     0.03007885    0.01569045   -0.00010364
     atom   11 type  1   force =     0.00383628    0.01838459   -0.03000447
     atom   12 type  1   force =    -0.03546651   -0.04158893    0.02284601
     atom   13 type  2   force =     0.01487510    0.00542244    0.00630966
     atom   14 type  1   force =    -0.03697976    0.00880113   -0.01475470
     atom   15 type  1   force =     0.03122199   -0.00271371    0.00097804
     atom   16 type  2   force =    -0.01267323   -0.02039296   -0.00689829
     atom   17 type  1   force =     0.00043452    0.03198230   -0.00134321
     atom   18 type  1   force =     0.02218948   -0.03070264   -0.01281081
     atom   19 type  2   force =    -0.00775179    0.01853703    0.01096682
     atom   20 type  1   force =    -0.02457312    0.00090185   -0.01458178
     atom   21 type  1   force =     0.03773204   -0.02904958    0.02122946
     atom   22 type  2   force =     0.00895932    0.00095139    0.01239642
     atom   23 type  1   force =    -0.01887490   -0.03062209    0.01960738
     atom   24 type  1   force =     0.01940955    0.02928099   -0.02677296
     atom   25 type  2   force =    -0.01850131    0.02851585    0.01726427
     atom   26 type  1   force =     0.03770638   -0.01574383   -0.02082875
     atom   27 type  1   force =    -0.00445023   -0.00946351    0.00008165
     atom   28 type  2   force =    -0.02714981    0.02235815    0.04249638
     atom   29 type  1   force =     0.02912770   -0.01317030   -0.04603500
     atom   30 type  1   force =    -0.01061450   -0.00493400    0.01582787
     atom   31 type  2   force =    -0.01494259    0.01484934   -0.04310781
     atom   32 type  1   force =     0.05731799    0.00265028    0.00101068
     atom   33 type  1   force =    -0.04107112   -0.01497107    0.03247210
     atom   34 type  2   force =    -0.00515550    0.01309824    0.01636170
     atom   35 type  1   force =     0.03849276   -0.02053642    0.00330285
     atom   36 type  1   force =    -0.04108820    0.00117302    0.00180698
     atom   37 type  2   force =     0.01314139   -0.01382760    0.03746816
     atom   38 type  1   force =    -0.04468295    0.00838604   -0.02853092
     atom   39 type  1   force =     0.01915049    0.00393166    0.02033799
     atom   40 type  2   force =    -0.00226508   -0.00011139    0.01444170
     atom   41 type  1   force =    -0.03328177   -0.00785294    0.03571519
     atom   42 type  1   force =     0.04400347    0.01138091   -0.04461691
     atom   43 type  2   force =    -0.02136370   -0.01176730   -0.01566849
     atom   44 type  1   force =    -0.00512249    0.00012755   -0.01513380
     atom   45 type  1   force =     0.00777392    0.01184178    0.02781657
     atom   46 type  2   force =     0.02765659    0.03245813    0.01541692
     atom   47 type  1   force =     0.01901222   -0.02065219    0.01837421
     atom   48 type  1   force =    -0.04637832   -0.01605478   -0.02318721
     atom   49 type  2   force =    -0.01746311   -0.00110292   -0.02800955
     atom   50 type  1   force =     0.03431558    0.01735073    0.04705669
     atom   51 type  1   force =    -0.01120962   -0.00991705   -0.03793846
     atom   52 type  2   force =     0.00315619   -0.01784789   -0.02738365
     atom   53 type  1   force =     0.01671566   -0.02590643   -0.00124941
     atom   54 type  1   force =    -0.02499244    0.03719341    0.01195554
     atom   55 type  2   force =     0.03882653    0.01189560    0.00548783
     atom   56 type  1   force =    -0.01285323   -0.01193467   -0.01699501
     atom   57 type  1   force =    -0.03852330    0.01732518    0.00360738
     atom   58 type  2   force =     0.00732051   -0.01156419   -0.00976367
     atom   59 type  1   force =    -0.01149193    0.00661964    0.01376988
     atom   60 type  1   force =    -0.00439186    0.00216311   -0.00645798
     atom   61 type  2   force =    -0.02346041    0.00262428   -0.01324873
     atom   62 type  1   force =     0.00576373    0.02111565   -0.01477590
     atom   63 type  1   force =     0.02327813   -0.01277048    0.01230331
     atom   64 type  2   force =     0.00135183    0.02257322    0.00421984
     atom   65 type  1   force =     0.01896887    0.00692800   -0.04795382
     atom   66 type  1   force =    -0.02233058   -0.02998750    0.03847237
     atom   67 type  2   force =     0.01013414   -0.02283398    0.03387872
     atom   68 type  1   force =     0.00343109    0.00292706    0.01998165
     atom   69 type  1   force =    -0.01547173    0.00232383   -0.04883106
     atom   70 type  2   force =    -0.00513767    0.02577429   -0.00707240
     atom   71 type  1   force =     0.01217271   -0.04638139   -0.00003051
     atom   72 type  1   force =     0.00837645    0.02211578    0.02947241
     atom   73 type  2   force =     0.00397422    0.04076546   -0.01091150
     atom   74 type  1   force =    -0.02131045    0.02247315   -0.00819502
     atom   75 type  1   force =     0.00131024   -0.04753893    0.02795836
     atom   76 type  2   force =     0.02476484   -0.00447236   -0.00671799
     atom   77 type  1   force =    -0.04483367   -0.02298484    0.05389800
     atom   78 type  1   force =    -0.00138240    0.02553963   -0.05148113
     atom   79 type  2   force =    -0.05245782   -0.00630089    0.00667297
     atom   80 type  1   force =     0.05041380    0.02071511    0.00077762
     atom   81 type  1   force =    -0.00913166   -0.02547051   -0.00176959
     atom   82 type  2   force =    -0.01896966   -0.02579066   -0.02298635
     atom   83 type  1   force =    -0.00369433    0.02819255    0.05088796
     atom   84 type  1   force =     0.03657759   -0.00106927   -0.03050432
     atom   85 type  2   force =    -0.00506904    0.00345721   -0.01638331
     atom   86 type  1   force =     0.02982919   -0.00868923    0.03757766
     atom   87 type  1   force =    -0.01560222    0.00996569   -0.02545734
     atom   88 type  2   force =     0.02686307    0.01974736    0.00601984
     atom   89 type  1   force =    -0.04187225    0.03222326    0.00177581
     atom   90 type  1   force =     0.01135691   -0.05512655   -0.00652812
     atom   91 type  2   force =     0.00875782   -0.02876022    0.01385142
     atom   92 type  1   force =    -0.01899402    0.03560872    0.04044371
     atom   93 type  1   force =     0.01096986   -0.01293048   -0.04980993
     atom   94 type  2   force =     0.02012361   -0.01265771    0.01248224
     atom   95 type  1   force =    -0.01437399   -0.02953674   -0.04908007
     atom   96 type  1   force =    -0.00388314    0.04896541    0.03775352
     atom   97 type  2   force =     0.04192453   -0.00147803   -0.02057684
     atom   98 type  1   force =    -0.01980136   -0.03668215    0.04028260
     atom   99 type  1   force =    -0.00749365    0.02210709   -0.01997638
     atom  100 type  2   force =     0.00500398    0.03363383   -0.01455308
     atom  101 type  1   force =    -0.04635062   -0.00190421   -0.01093210
     atom  102 type  1   force =     0.04798825   -0.02715370    0.02183464
     atom  103 type  2   force =     0.02085694   -0.01491637   -0.01921235
     atom  104 type  1   force =     0.04580096    0.02176892    0.02244610
     atom  105 type  1   force =    -0.04771488   -0.01180582   -0.02089715
     atom  106 type  2   force =    -0.03278911   -0.00865469   -0.02668658
     atom  107 type  1   force =     0.01666389   -0.04659166    0.02713634
     atom  108 type  1   force =     0.01290074    0.05605825   -0.00041216
     atom  109 type  2   force =     0.00163396    0.01634197    0.02479376
     atom  110 type  1   force =    -0.02536400   -0.04124984   -0.01891610
     atom  111 type  1   force =     0.01423874    0.02250115   -0.00743343
     atom  112 type  2   force =     0.03835751   -0.01487003    0.00792426
     atom  113 type  1   force =     0.01226344   -0.03016704   -0.00772776
     atom  114 type  1   force =    -0.05323458    0.03282647    0.00037068
     atom  115 type  2   force =    -0.01161625   -0.01005666   -0.00867889
     atom  116 type  1   force =    -0.04724378    0.00905438    0.01058835
     atom  117 type  1   force =     0.04851016    0.00186891   -0.00531131
     atom  118 type  2   force =    -0.01701261    0.02176318   -0.02598998
     atom  119 type  1   force =     0.03699418   -0.01793507    0.04333613
     atom  120 type  1   force =    -0.01974420   -0.00034710   -0.02232096
     atom  121 type  2   force =     0.03485227   -0.00157215    0.00718955
     atom  122 type  1   force =    -0.03149295   -0.03950919   -0.03058821
     atom  123 type  1   force =    -0.00898703    0.03850805    0.02504240
     atom  124 type  2   force =    -0.00823690   -0.00152794   -0.03433767
     atom  125 type  1   force =    -0.01861995   -0.02521219    0.03254575
     atom  126 type  1   force =     0.03767890    0.02231811   -0.00920513
     atom  127 type  2   force =    -0.00859634   -0.03565829    0.00541293
     atom  128 type  1   force =    -0.04621857    0.03322379    0.01213853
     atom  129 type  1   force =     0.05481712   -0.00019438   -0.01385027
     atom  130 type  2   force =     0.03063978   -0.01797930    0.02265368
     atom  131 type  1   force =     0.01994433    0.01298140    0.00857211
     atom  132 type  1   force =    -0.05096436    0.01029573   -0.03450640
     atom  133 type  2   force =     0.00041781   -0.01244873   -0.00561653
     atom  134 type  1   force =     0.03878213   -0.01328636    0.02579064
     atom  135 type  1   force =    -0.02392951    0.00470454   -0.03010335
     atom  136 type  2   force =    -0.00310079    0.00392241    0.02067554
     atom  137 type  1   force =     0.01464614   -0.03881829   -0.01148243
     atom  138 type  1   force =    -0.02197775    0.05446195   -0.00670663
     atom  139 type  2   force =     0.02153292    0.01166812    0.03582688
     atom  140 type  1   force =    -0.00829152    0.01302033   -0.04567743
     atom  141 type  1   force =     0.00195940   -0.01122758    0.03398400
     The non-local contrib.  to forces
     atom    1 type  2   force =     1.93236361   -0.13326733    0.02416582
     atom    2 type  1   force =    -0.06201140   -0.03452797   -0.06706282
     atom    3 type  1   force =    -0.04390046    0.05154921    0.06909339
     atom    4 type  2   force =     0.75497884   -1.30730586    1.62988109
     atom    5 type  1   force =    -0.08914209   -0.00470007   -0.03831772
     atom    6 type  1   force =     0.05656029    0.07037336   -0.03788332
     atom    7 type  2   force =    -0.52342982   -1.10237791   -1.36563157
     atom    8 type  1   force =    -0.02610778   -0.00499111    0.09414591
     atom    9 type  1   force =     0.06804028    0.06705518   -0.01724411
     atom   10 type  2   force =     2.00934098   -0.06818582    0.41710211
     atom   11 type  1   force =    -0.03375924    0.05967002   -0.06974684
     atom   12 type  1   force =    -0.06874661   -0.05488860    0.04235868
     atom   13 type  2   force =     0.18179019    0.89410543    1.66823130
     atom   14 type  1   force =    -0.08403004   -0.01228408   -0.04736176
     atom   15 type  1   force =     0.07410002   -0.04221012   -0.04314822
     atom   16 type  2   force =    -1.84310782   -0.31582594    0.02261594
     atom   17 type  1   force =     0.04524097    0.08532085    0.01722677
     atom   18 type  1   force =     0.06223048   -0.07373866   -0.01852898
     atom   19 type  2   force =     0.95252315    1.69979512   -0.35702860
     atom   20 type  1   force =    -0.09656586   -0.00908609   -0.01652066
     atom   21 type  1   force =     0.04019335   -0.07903993    0.04295981
     atom   22 type  2   force =    -1.17848167   -0.52171510   -1.35481951
     atom   23 type  1   force =     0.00661782   -0.04714182    0.08507781
     atom   24 type  1   force =     0.06026658    0.07385736   -0.00631657
     atom   25 type  2   force =    -1.24995818    0.73996998   -0.98418348
     atom   26 type  1   force =     0.08834153   -0.03548402   -0.02706334
     atom   27 type  1   force =    -0.01450737   -0.00534329    0.09516949
     atom   28 type  2   force =     0.80495754    0.08982673    1.60098930
     atom   29 type  1   force =     0.03586873   -0.02190345   -0.08897988
     atom   30 type  1   force =    -0.09239726    0.02515562   -0.00261275
     atom   31 type  2   force =    -0.82978832    0.59104938   -1.87882030
     atom   32 type  1   force =     0.09659442    0.00293770    0.01818884
     atom   33 type  1   force =    -0.05436007   -0.03071219    0.07656148
     atom   34 type  2   force =     0.30024606    1.45824122   -1.32370608
     atom   35 type  1   force =     0.07008370   -0.05758210    0.03426145
     atom   36 type  1   force =    -0.08552554   -0.01751255    0.03701695
     atom   37 type  2   force =    -0.09093948    0.71499367    1.79206275
     atom   38 type  1   force =    -0.06999545    0.00534847   -0.06969721
     atom   39 type  1   force =     0.08215229   -0.04639220   -0.03121550
     atom   40 type  2   force =     1.00108802   -0.66012936    1.81049710
     atom   41 type  1   force =    -0.09688188   -0.00803606   -0.01272839
     atom   42 type  1   force =     0.04644345    0.03673734   -0.07723044
     atom   43 type  2   force =    -0.78128217    1.49746425   -0.59717042
     atom   44 type  1   force =    -0.01537245   -0.08194990   -0.04609376
     atom   45 type  1   force =     0.06116560   -0.00898606    0.07484459
     atom   46 type  2   force =     0.50040651    2.00403132    0.31915926
     atom   47 type  1   force =     0.06213823   -0.06959044    0.02846451
     atom   48 type  1   force =    -0.08296727   -0.03407495   -0.03969902
     atom   49 type  2   force =    -1.97765290   -0.46666137    0.70971370
     atom   50 type  1   force =     0.07441151    0.03588690    0.05225218
     atom   51 type  1   force =     0.01848203   -0.00755428   -0.09471294
     atom   52 type  2   force =    -0.85063644   -1.10236427   -1.08970338
     atom   53 type  1   force =     0.08622474   -0.02437146    0.03803656
     atom   54 type  1   force =    -0.02512297    0.09225630    0.01861106
     atom   55 type  2   force =     0.38217600    0.22582190   -1.62382299
     atom   56 type  1   force =     0.03267881   -0.07430025    0.05154574
     atom   57 type  1   force =    -0.04560186    0.06639502    0.05556437
     atom   58 type  2   force =     1.41401695    0.08657965    0.96945469
     atom   59 type  1   force =    -0.09069281    0.01730094    0.02858991
     atom   60 type  1   force =     0.00517581   -0.03137508   -0.09028284
     atom   61 type  2   force =    -1.61159831   -0.42823663    0.73985778
     atom   62 type  1   force =     0.00437584    0.05440893   -0.07841519
     atom   63 type  1   force =     0.08770475   -0.02589795    0.03395615
     atom   64 type  2   force =     0.30133607    2.01162063    0.92187000
     atom   65 type  1   force =     0.01355849   -0.01591558   -0.09492467
     atom   66 type  1   force =    -0.03002185   -0.07831144    0.05030759
     atom   67 type  2   force =     0.44620303   -1.78424497    0.62841855
     atom   68 type  1   force =    -0.00738300    0.07287131    0.06587558
     atom   69 type  1   force =    -0.01833173    0.02929036   -0.09265749
     atom   70 type  2   force =    -0.94236681    0.84405276   -1.48087532
     atom   71 type  1   force =     0.01332848   -0.09592779    0.01212181
     atom   72 type  1   force =     0.03484375    0.05297239    0.07201288
     atom   73 type  2   force =    -1.38779274    1.07819198    0.63485028
     atom   74 type  1   force =     0.06534374    0.04162964   -0.06117543
     atom   75 type  1   force =     0.01951609   -0.09520942    0.01745967
     atom   76 type  2   force =     1.83890349    0.89391351    0.95480467
     atom   77 type  1   force =    -0.06644724   -0.05254446    0.04666474
     atom   78 type  1   force =    -0.01336834    0.00553569   -0.09682865
     atom   79 type  2   force =    -1.39761963    0.67717186    1.38323778
     atom   80 type  1   force =     0.09206071    0.02973860   -0.01295894
     atom   81 type  1   force =    -0.02876293   -0.06754385   -0.06302473
     atom   82 type  2   force =    -0.03902027   -2.16590972    0.18718938
     atom   83 type  1   force =    -0.01665931    0.06420870    0.07149692
     atom   84 type  1   force =     0.00443078    0.04006077   -0.08971651
     atom   85 type  2   force =     0.90022082    1.20551753   -0.97109271
     atom   86 type  1   force =     0.03258858   -0.04664002    0.08127021
     atom   87 type  1   force =    -0.08659590   -0.03364286   -0.02949344
     atom   88 type  2   force =     1.91979603    1.23240151    0.18083353
     atom   89 type  1   force =    -0.08950889    0.04086901    0.00453076
     atom   90 type  1   force =     0.00034210   -0.09762190   -0.00774992
     atom   91 type  2   force =     1.14134430   -1.64844041    1.01968093
     atom   92 type  1   force =    -0.03445602    0.07849513    0.04757073
     atom   93 type  1   force =    -0.02570432   -0.00438011   -0.09516154
     atom   94 type  2   force =     2.21500101   -0.21033289    0.01659784
     atom   95 type  1   force =    -0.05865213   -0.04504795   -0.06461240
     atom   96 type  1   force =    -0.04825550    0.04946506    0.06882759
     atom   97 type  2   force =     2.09870758    0.00300651   -0.52373049
     atom   98 type  1   force =    -0.03827423   -0.05431107    0.07118452
     atom   99 type  1   force =    -0.06474937    0.05837712   -0.04528911
     atom  100 type  2   force =     0.49200013    2.05084187   -0.80523859
     atom  101 type  1   force =    -0.09094216   -0.03708002   -0.00413754
     atom  102 type  1   force =     0.06625258   -0.05959719    0.03925522
     atom  103 type  2   force =     0.63137626   -0.59432928   -1.79620105
     atom  104 type  1   force =     0.06046964    0.03594061    0.06907758
     atom  105 type  1   force =    -0.09276682   -0.00072961    0.02842332
     atom  106 type  2   force =    -1.44418779   -0.41700794   -1.58279340
     atom  107 type  1   force =     0.04123778   -0.07090407    0.05421190
     atom  108 type  1   force =     0.03165397    0.09045323    0.02127550
     atom  109 type  2   force =    -0.75608475    0.79261819    1.50440915
     atom  110 type  1   force =    -0.03318950   -0.08058498   -0.04478278
     atom  111 type  1   force =     0.07933698    0.03864589   -0.04366108
     atom  112 type  2   force =     1.80009982    1.19441261    0.51971639
     atom  113 type  1   force =     0.01382969   -0.09320124   -0.02451772
     atom  114 type  1   force =    -0.09179841    0.02755240    0.00277562
     atom  115 type  2   force =    -0.60833011    0.33573434   -2.02891620
     atom  116 type  1   force =    -0.06496999   -0.01458857    0.07188317
     atom  117 type  1   force =     0.09280282   -0.00581339    0.02943801
     atom  118 type  2   force =    -0.03745521    2.22858914   -0.35033987
     atom  119 type  1   force =     0.05108792   -0.04689776    0.06648129
     atom  120 type  1   force =    -0.05381239   -0.05719328   -0.05792059
     atom  121 type  2   force =     2.15685408   -0.68459894    0.49069675
     atom  122 type  1   force =    -0.06388430   -0.05327421   -0.04979392
     atom  123 type  1   force =    -0.03199592    0.08760984    0.02802197
     atom  124 type  2   force =    -0.21356681   -1.01991415   -1.85195971
     atom  125 type  1   force =    -0.04602299   -0.02585154    0.08256724
     atom  126 type  1   force =     0.04543674    0.08772987    0.00500415
     atom  127 type  2   force =    -0.59513258   -2.21153682    0.18491153
     atom  128 type  1   force =    -0.06493299    0.07265207    0.00901269
     atom  129 type  1   force =     0.09027971    0.02895142   -0.02534651
     atom  130 type  2   force =    -0.12982532   -1.08739322    1.66529760
     atom  131 type  1   force =     0.08479572    0.03730362   -0.02297271
     atom  132 type  1   force =    -0.06939548    0.02013912   -0.06432107
     atom  133 type  2   force =    -1.43539819   -0.83523590    1.18451073
     atom  134 type  1   force =     0.09402248    0.00334766    0.02371197
     atom  135 type  1   force =    -0.01898918    0.02989705   -0.09172102
     atom  136 type  2   force =     1.39482575    0.43574649   -1.28497479
     atom  137 type  1   force =    -0.02102665   -0.09091542    0.02902158
     atom  138 type  1   force =    -0.05350491    0.06828757    0.04674965
     atom  139 type  2   force =    -1.63893359    0.10500200    0.60814839
     atom  140 type  1   force =     0.03185427    0.01705705   -0.09138473
     atom  141 type  1   force =     0.07219663   -0.01775918    0.06038666
     The ionic contribution  to forces
     atom    1 type  2   force =     0.16515149    9.38021617   10.37337736
     atom    2 type  1   force =     2.84765973    2.57688116    3.64789255
     atom    3 type  1   force =     1.65386169   -0.05163776   -0.37548746
     atom    4 type  2   force =     5.23300279   10.79284487  -11.50942008
     atom    5 type  1   force =     4.26153897    1.69264279    0.02136723
     atom    6 type  1   force =    -0.84690097   -0.62119760   -0.75707394
     atom    7 type  2   force =    -8.35984047   10.47647988    2.52102049
     atom    8 type  1   force =    -0.64938289    1.28110444   -3.03543958
     atom    9 type  1   force =    -3.55852484   -0.41229617    0.47038249
     atom   10 type  2   force =     1.00480614   11.22884967   -5.45362840
     atom   11 type  1   force =     1.61919765    0.01492038    1.15836551
     atom   12 type  1   force =     3.29512283    3.36009520   -2.25257973
     atom   13 type  2   force =     1.85600015    1.10437043  -15.04316712
     atom   14 type  1   force =     2.76948356    0.77463163   -0.77375133
     atom   15 type  1   force =    -1.90067194    1.87639348   -0.71786366
     atom   16 type  2   force =     1.69712973    1.85514299    0.40293001
     atom   17 type  1   force =    -1.54404303   -2.37850735   -0.33992346
     atom   18 type  1   force =    -2.50172455    2.42457551    0.92608966
     atom   19 type  2   force =    -7.23212974   -7.43613753   -6.93826148
     atom   20 type  1   force =     2.33342527   -0.29213924   -0.48063505
     atom   21 type  1   force =    -2.44617458    1.61507710   -2.77857958
     atom   22 type  2   force =     3.96437220    1.21393489   11.95641330
     atom   23 type  1   force =     0.30859452    1.66098321   -1.11038974
     atom   24 type  1   force =    -1.41540318   -2.22683800    1.79989412
     atom   25 type  2   force =    -3.52534658   -3.89183917    0.49069722
     atom   26 type  1   force =    -3.86438960    0.79453070    0.67860259
     atom   27 type  1   force =    -0.62368609   -0.37884751   -3.14663828
     atom   28 type  2   force =   -11.53824244   -0.30701252   10.17328218
     atom   29 type  1   force =    -2.88925612    0.69311639    4.97946863
     atom   30 type  1   force =     1.05807263   -0.79075810    1.95176863
     atom   31 type  2   force =    -7.85215753    3.44580997   -6.87934436
     atom   32 type  1   force =    -4.66033151    0.51810847   -1.94285056
     atom   33 type  1   force =     0.63478128    1.83402119   -3.95634049
     atom   34 type  2   force =    -8.59210140  -12.62245096   12.56351995
     atom   35 type  1   force =    -3.62333423   -0.07441898    0.26972308
     atom   36 type  1   force =     1.24687971   -1.39951284    0.44940125
     atom   37 type  2   force =     9.27312478  -12.41699708    3.02040228
     atom   38 type  1   force =     3.96855509   -1.86446135    3.46553502
     atom   39 type  1   force =    -1.37389800   -0.55021671    1.78287774
     atom   40 type  2   force =    -9.37082552   10.38557226    5.61298687
     atom   41 type  1   force =     2.09642819    2.14381527    1.78514318
     atom   42 type  1   force =    -2.89383884    0.15217222    3.91354781
     atom   43 type  2   force =    -3.73641191    2.44856833   -6.18331008
     atom   44 type  1   force =    -0.21443210    3.07115737    0.13701440
     atom   45 type  1   force =    -2.65818644    1.04914335   -3.51771491
     atom   46 type  2   force =    11.45608663    6.29158282    3.28660730
     atom   47 type  1   force =     0.43388335    4.04623566   -0.37812660
     atom   48 type  1   force =     4.42300088    2.64499257    2.10122751
     atom   49 type  2   force =    13.60156654   -8.84816737   -8.27561954
     atom   50 type  1   force =    -1.02798784   -2.83424050   -3.27657136
     atom   51 type  1   force =     1.37839322   -1.56565449    1.93839812
     atom   52 type  2   force =     9.06785383   -2.30766423    1.67796258
     atom   53 type  1   force =    -1.54832751    0.32818759   -1.05806921
     atom   54 type  1   force =     2.34626706   -3.56972323   -0.83303977
     atom   55 type  2   force =    -0.56958745  -10.24171922    7.12782216
     atom   56 type  1   force =    -1.08921158    0.73216518   -1.31911051
     atom   57 type  1   force =     1.65928587   -3.52243001   -0.89921310
     atom   58 type  2   force =     3.56251830    4.99766388   -9.77207467
     atom   59 type  1   force =     3.70960979    0.05686823   -2.29341472
     atom   60 type  1   force =     1.13322517    2.02499143    1.40215247
     atom   61 type  2   force =    -6.87137330    6.33510711    3.46945817
     atom   62 type  1   force =    -1.90319792   -0.42277354    3.41794776
     atom   63 type  1   force =    -3.93361267    1.78616071   -0.13518520
     atom   64 type  2   force =    -9.66959916  -11.39985661   -8.60964812
     atom   65 type  1   force =    -2.12228924   -0.72520542    1.97511909
     atom   66 type  1   force =    -0.59183739    1.13948196   -2.95132410
     atom   67 type  2   force =    -3.84384033   -3.42368642   11.50797883
     atom   68 type  1   force =    -0.17997230   -3.32038133    0.20077800
     atom   69 type  1   force =     0.11239505   -2.29266073    5.24615085
     atom   70 type  2   force =    12.85365788   -0.61005083    9.05632940
     atom   71 type  1   force =     1.30100491    3.22823453    0.33796676
     atom   72 type  1   force =     0.52968674   -1.24233859   -0.95082388
     atom   73 type  2   force =     9.29211845   11.35293291    2.10355234
     atom   74 type  1   force =    -0.81592703    0.77111672    2.81933293
     atom   75 type  1   force =     0.49372982    5.26539435    0.13703340
     atom   76 type  2   force =   -11.16923805  -10.54156879   -2.90908612
     atom   77 type  1   force =     0.60007315    0.10168697   -1.98272633
     atom   78 type  1   force =    -0.62939204   -2.04637756    3.61699878
     atom   79 type  2   force =   -10.16335161   -6.48034985    2.20357488
     atom   80 type  1   force =    -4.81880002   -1.94153665    1.37393036
     atom   81 type  1   force =    -1.50961009    1.33380652    2.82371940
     atom   82 type  2   force =    10.31006805    7.03930558   -9.77087745
     atom   83 type  1   force =     2.10332663   -2.13532565   -4.14431703
     atom   84 type  1   force =     1.36553034   -0.62155899    1.26755478
     atom   85 type  2   force =    -7.15130614    7.95973773   -4.82066005
     atom   86 type  1   force =    -2.31596232    3.04501839   -3.63830252
     atom   87 type  1   force =     2.00934027    2.43148611   -0.17582477
     atom   88 type  2   force =    -4.41435121    5.48136487   -8.67635460
[...]
     atom   86 type  1   force =     0.00000000    0.00000000    0.00000000
     atom   87 type  1   force =     0.00000000    0.00000000    0.00000000
     atom   88 type  2   force =     0.00000000    0.00000000    0.00000000
     atom   89 type  1   force =     0.00000000    0.00000000    0.00000000
     atom   90 type  1   force =     0.00000000    0.00000000    0.00000000
     atom   91 type  2   force =     0.00000000    0.00000000    0.00000000
     atom   92 type  1   force =     0.00000000    0.00000000    0.00000000
     atom   93 type  1   force =     0.00000000    0.00000000    0.00000000
     atom   94 type  2   force =     0.00000000    0.00000000    0.00000000
     atom   95 type  1   force =     0.00000000    0.00000000    0.00000000
     atom   96 type  1   force =     0.00000000    0.00000000    0.00000000
     atom   97 type  2   force =     0.00000000    0.00000000    0.00000000
     atom   98 type  1   force =     0.00000000    0.00000000    0.00000000
     atom   99 type  1   force =     0.00000000    0.00000000    0.00000000
     atom  100 type  2   force =     0.00000000    0.00000000    0.00000000
     atom  101 type  1   force =     0.00000000    0.00000000    0.00000000
     atom  102 type  1   force =     0.00000000    0.00000000    0.00000000
     atom  103 type  2   force =     0.00000000    0.00000000    0.00000000
     atom  104 type  1   force =     0.00000000    0.00000000    0.00000000
     atom  105 type  1   force =     0.00000000    0.00000000    0.00000000
     atom  106 type  2   force =     0.00000000    0.00000000    0.00000000
     atom  107 type  1   force =     0.00000000    0.00000000    0.00000000
     atom  108 type  1   force =     0.00000000    0.00000000    0.00000000
     atom  109 type  2   force =     0.00000000    0.00000000    0.00000000
     atom  110 type  1   force =     0.00000000    0.00000000    0.00000000
     atom  111 type  1   force =     0.00000000    0.00000000    0.00000000
     atom  112 type  2   force =     0.00000000    0.00000000    0.00000000
     atom  113 type  1   force =     0.00000000    0.00000000    0.00000000
     atom  114 type  1   force =     0.00000000    0.00000000    0.00000000
     atom  115 type  2   force =     0.00000000    0.00000000    0.00000000
     atom  116 type  1   force =     0.00000000    0.00000000    0.00000000
     atom  117 type  1   force =     0.00000000    0.00000000    0.00000000
     atom  118 type  2   force =     0.00000000    0.00000000    0.00000000
     atom  119 type  1   force =     0.00000000    0.00000000    0.00000000
     atom  120 type  1   force =     0.00000000    0.00000000    0.00000000
     atom  121 type  2   force =     0.00000000    0.00000000    0.00000000
     atom  122 type  1   force =     0.00000000    0.00000000    0.00000000
     atom  123 type  1   force =     0.00000000    0.00000000    0.00000000
     atom  124 type  2   force =     0.00000000    0.00000000    0.00000000
     atom  125 type  1   force =     0.00000000    0.00000000    0.00000000
     atom  126 type  1   force =     0.00000000    0.00000000    0.00000000
     atom  127 type  2   force =     0.00000000    0.00000000    0.00000000
     atom  128 type  1   force =     0.00000000    0.00000000    0.00000000
     atom  129 type  1   force =     0.00000000    0.00000000    0.00000000
     atom  130 type  2   force =     0.00000000    0.00000000    0.00000000
     atom  131 type  1   force =     0.00000000    0.00000000    0.00000000
     atom  132 type  1   force =     0.00000000    0.00000000    0.00000000
     atom  133 type  2   force =     0.00000000    0.00000000    0.00000000
     atom  134 type  1   force =     0.00000000    0.00000000    0.00000000
     atom  135 type  1   force =     0.00000000    0.00000000    0.00000000
     atom  136 type  2   force =     0.00000000    0.00000000    0.00000000
     atom  137 type  1   force =     0.00000000    0.00000000    0.00000000
     atom  138 type  1   force =     0.00000000    0.00000000    0.00000000
     atom  139 type  2   force =     0.00000000    0.00000000    0.00000000
     atom  140 type  1   force =     0.00000000    0.00000000    0.00000000
     atom  141 type  1   force =     0.00000000    0.00000000    0.00000000
     The SCF correction term to forces
     atom    1 type  2   force =     0.00000027    0.00000004    0.00000013
     atom    2 type  1   force =     0.00000009    0.00000005    0.00000009
     atom    3 type  1   force =     0.00000006   -0.00000005   -0.00000007
     atom    4 type  2   force =     0.00000009   -0.00000010    0.00000016
     atom    5 type  1   force =     0.00000010    0.00000000    0.00000006
     atom    6 type  1   force =    -0.00000004   -0.00000008    0.00000005
     atom    7 type  2   force =     0.00000005   -0.00000010   -0.00000012
     atom    8 type  1   force =     0.00000000   -0.00000002   -0.00000005
     atom    9 type  1   force =    -0.00000002   -0.00000003   -0.00000002
     atom   10 type  2   force =     0.00000049    0.00000011    0.00000013
     atom   11 type  1   force =     0.00000009   -0.00000005    0.00000010
     atom   12 type  1   force =     0.00000015    0.00000010   -0.00000005
     atom   13 type  2   force =    -0.00000001    0.00000010    0.00000012
     atom   14 type  1   force =     0.00000005    0.00000001    0.00000003
     atom   15 type  1   force =    -0.00000003    0.00000003    0.00000002
     atom   16 type  2   force =    -0.00000024   -0.00000006    0.00000007
     atom   17 type  1   force =    -0.00000006   -0.00000009   -0.00000001
     atom   18 type  1   force =    -0.00000009    0.00000007    0.00000002
     atom   19 type  2   force =     0.00000009    0.00000019    0.00000000
     atom   20 type  1   force =     0.00000006    0.00000003    0.00000001
     atom   21 type  1   force =    -0.00000003    0.00000007   -0.00000003
     atom   22 type  2   force =    -0.00000012   -0.00000013   -0.00000004
     atom   23 type  1   force =     0.00000001    0.00000001   -0.00000002
     atom   24 type  1   force =     0.00000000   -0.00000003    0.00000002
     atom   25 type  2   force =    -0.00000004    0.00000020   -0.00000004
     atom   26 type  1   force =    -0.00000009    0.00000006    0.00000002
     atom   27 type  1   force =     0.00000001    0.00000004   -0.00000008
     atom   28 type  2   force =    -0.00000015    0.00000005    0.00000023
     atom   29 type  1   force =    -0.00000004    0.00000001    0.00000009
     atom   30 type  1   force =     0.00000003   -0.00000001    0.00000003
     atom   31 type  2   force =     0.00000006    0.00000007   -0.00000004
     atom   32 type  1   force =    -0.00000008    0.00000000   -0.00000002
     atom   33 type  1   force =     0.00000004    0.00000003   -0.00000006
     atom   34 type  2   force =     0.00000010    0.00000013   -0.00000003
     atom   35 type  1   force =    -0.00000005    0.00000004   -0.00000001
     atom   36 type  1   force =     0.00000006    0.00000001   -0.00000001
     atom   37 type  2   force =    -0.00000008    0.00000010    0.00000023
     atom   38 type  1   force =     0.00000005   -0.00000000    0.00000008
     atom   39 type  1   force =    -0.00000005    0.00000001    0.00000003
     atom   40 type  2   force =     0.00000010   -0.00000004    0.00000032
     atom   41 type  1   force =     0.00000004    0.00000002    0.00000001
     atom   42 type  1   force =    -0.00000003   -0.00000001    0.00000007
     atom   43 type  2   force =    -0.00000014    0.00000003   -0.00000016
     atom   44 type  1   force =    -0.00000000    0.00000006    0.00000002
     atom   45 type  1   force =    -0.00000005    0.00000002   -0.00000007
     atom   46 type  2   force =     0.00000020    0.00000048    0.00000010
     atom   47 type  1   force =    -0.00000002    0.00000014   -0.00000002
     atom   48 type  1   force =     0.00000012    0.00000009    0.00000006
     atom   49 type  2   force =    -0.00000029   -0.00000002   -0.00000005
     atom   50 type  1   force =    -0.00000011   -0.00000006   -0.00000007
     atom   51 type  1   force =    -0.00000004    0.00000001    0.00000011
     atom   52 type  2   force =     0.00000005   -0.00000025   -0.00000017
     atom   53 type  1   force =    -0.00000003    0.00000000   -0.00000003
     atom   54 type  1   force =     0.00000002   -0.00000005   -0.00000002
     atom   55 type  2   force =     0.00000018    0.00000004   -0.00000008
     atom   56 type  1   force =     0.00000002    0.00000003   -0.00000002
     atom   57 type  1   force =     0.00000007   -0.00000003   -0.00000002
     atom   58 type  2   force =     0.00000021   -0.00000010    0.00000000
     atom   59 type  1   force =     0.00000005   -0.00000003   -0.00000002
     atom   60 type  1   force =     0.00000002    0.00000001    0.00000005
     atom   61 type  2   force =    -0.00000015   -0.00000009    0.00000003
     atom   62 type  1   force =    -0.00000003   -0.00000005    0.00000008
     atom   63 type  1   force =    -0.00000008    0.00000001   -0.00000002
     atom   64 type  2   force =    -0.00000006    0.00000026    0.00000011
     atom   65 type  1   force =    -0.00000003    0.00000004    0.00000007
     atom   66 type  1   force =     0.00000001    0.00000006   -0.00000003
     atom   67 type  2   force =     0.00000030   -0.00000038    0.00000045
     atom   68 type  1   force =     0.00000004   -0.00000013   -0.00000004
     atom   69 type  1   force =     0.00000005   -0.00000007    0.00000015
     atom   70 type  2   force =    -0.00000009    0.00000004   -0.00000014
     atom   71 type  1   force =    -0.00000001    0.00000000   -0.00000001
     atom   72 type  1   force =    -0.00000000   -0.00000001   -0.00000002
     atom   73 type  2   force =    -0.00000020    0.00000042   -0.00000007
     atom   74 type  1   force =    -0.00000008   -0.00000002    0.00000008
     atom   75 type  1   force =    -0.00000003    0.00000015   -0.00000003
     atom   76 type  2   force =     0.00000034    0.00000006    0.00000013
     atom   77 type  1   force =     0.00000012    0.00000007   -0.00000006
     atom   78 type  1   force =     0.00000006   -0.00000002    0.00000014
     atom   79 type  2   force =    -0.00000036    0.00000006    0.00000014
     atom   80 type  1   force =    -0.00000010   -0.00000000    0.00000002
     atom   81 type  1   force =    -0.00000003    0.00000004    0.00000004
     atom   82 type  2   force =    -0.00000015   -0.00000026   -0.00000013
     atom   83 type  1   force =     0.00000000   -0.00000011   -0.00000009
     atom   84 type  1   force =    -0.00000004   -0.00000006    0.00000006
     atom   85 type  2   force =    -0.00000006    0.00000006   -0.00000024
     atom   86 type  1   force =    -0.00000004    0.00000005   -0.00000010
     atom   87 type  1   force =     0.00000005    0.00000002   -0.00000000
     atom   88 type  2   force =    -0.00000000   -0.00000002    0.00000000
     atom   89 type  1   force =    -0.00000001    0.00000000   -0.00000000
     atom   90 type  1   force =     0.00000000   -0.00000001   -0.00000000
     atom   91 type  2   force =     0.00000015   -0.00000023    0.00000011
     atom   92 type  1   force =     0.00000004   -0.00000007   -0.00000002
     atom   93 type  1   force =     0.00000002   -0.00000003    0.00000007
     atom   94 type  2   force =     0.00000064   -0.00000010    0.00000014
     atom   95 type  1   force =     0.00000017    0.00000008    0.00000015
     atom   96 type  1   force =     0.00000015   -0.00000013   -0.00000013
     atom   97 type  2   force =     0.00000037    0.00000003   -0.00000000
     atom   98 type  1   force =     0.00000005    0.00000004   -0.00000004
     atom   99 type  1   force =     0.00000004   -0.00000001    0.00000001
     atom  100 type  2   force =    -0.00000001    0.00000028   -0.00000010
     atom  101 type  1   force =     0.00000010    0.00000007   -0.00000000
     atom  102 type  1   force =    -0.00000008    0.00000010   -0.00000005
     atom  103 type  2   force =     0.00000010   -0.00000015   -0.00000015
     atom  104 type  1   force =    -0.00000005   -0.00000006   -0.00000009
     atom  105 type  1   force =     0.00000012   -0.00000002   -0.00000003
     atom  106 type  2   force =    -0.00000027   -0.00000015   -0.00000027
     atom  107 type  1   force =    -0.00000007    0.00000006   -0.00000008
     atom  108 type  1   force =    -0.00000006   -0.00000010   -0.00000004
     atom  109 type  2   force =    -0.00000000    0.00000006    0.00000005
     atom  110 type  1   force =     0.00000001    0.00000002   -0.00000001
     atom  111 type  1   force =    -0.00000000   -0.00000001    0.00000001
     atom  112 type  2   force =     0.00000020   -0.00000004    0.00000007
     atom  113 type  1   force =     0.00000001    0.00000007    0.00000003
     atom  114 type  1   force =     0.00000012   -0.00000004    0.00000001
     atom  115 type  2   force =    -0.00000020    0.00000002   -0.00000023
     atom  116 type  1   force =     0.00000006    0.00000000   -0.00000008
     atom  117 type  1   force =    -0.00000010    0.00000001   -0.00000003
     atom  118 type  2   force =    -0.00000004    0.00000030   -0.00000016
     atom  119 type  1   force =    -0.00000006    0.00000008   -0.00000009
     atom  120 type  1   force =     0.00000005    0.00000008    0.00000003
     atom  121 type  2   force =     0.00000009   -0.00000006    0.00000000
     atom  122 type  1   force =     0.00000007    0.00000004    0.00000004
     atom  123 type  1   force =     0.00000003   -0.00000005   -0.00000002
     atom  124 type  2   force =    -0.00000007   -0.00000009   -0.00000032
     atom  125 type  1   force =    -0.00000000    0.00000001   -0.00000001
     atom  126 type  1   force =    -0.00000002   -0.00000001   -0.00000001
     atom  127 type  2   force =    -0.00000009   -0.00000024   -0.00000002
     atom  128 type  1   force =     0.00000004   -0.00000008   -0.00000001
     atom  129 type  1   force =    -0.00000007   -0.00000004    0.00000002
     atom  130 type  2   force =     0.00000011   -0.00000023    0.00000030
     atom  131 type  1   force =    -0.00000008   -0.00000007    0.00000004
     atom  132 type  1   force =     0.00000010   -0.00000004    0.00000010
     atom  133 type  2   force =    -0.00000011   -0.00000017    0.00000016
     atom  134 type  1   force =    -0.00000005   -0.00000002   -0.00000000
     atom  135 type  1   force =     0.00000000   -0.00000003    0.00000004
     atom  136 type  2   force =     0.00000022    0.00000015   -0.00000006
     atom  137 type  1   force =     0.00000004    0.00000008   -0.00000003
     atom  138 type  1   force =     0.00000007   -0.00000005   -0.00000003
     atom  139 type  2   force =    -0.00000001    0.00000003    0.00000005
     atom  140 type  1   force =    -0.00000001   -0.00000001    0.00000005
     atom  141 type  1   force =    -0.00000003    0.00000002   -0.00000003

     Total force =     0.511387     Total SCF correction =     0.000002

     Writing all to output data dir ./007.save/
 
     init_run     :      8.40s CPU      4.18s WALL (       1 calls)
     electrons    :     91.12s CPU     37.95s WALL (       1 calls)
     forces       :      4.24s CPU      1.43s WALL (       1 calls)

     Called by init_run:
     wfcinit      :      0.28s CPU      0.62s WALL (       1 calls)
                                        0.62s GPU  (       1 calls)
     wfcinit:atom :      0.00s CPU      0.00s WALL (       1 calls)
                                        0.00s GPU  (       1 calls)
     wfcinit:wfcr :      0.12s CPU      0.43s WALL (       1 calls)
                                        0.43s GPU  (       1 calls)
     potinit      :      4.02s CPU      1.23s WALL (       1 calls)
     hinit0       :      2.99s CPU      0.88s WALL (       1 calls)

     Called by electrons:
     c_bands      :      3.83s CPU      7.45s WALL (      21 calls)
     sum_band     :      5.63s CPU      3.95s WALL (      21 calls)
     v_of_rho     :     46.74s CPU     12.15s WALL (      22 calls)
     v_h          :      2.82s CPU      0.98s WALL (      22 calls)
     v_xc         :     45.74s CPU     11.68s WALL (      23 calls)
     newd         :      1.51s CPU      4.19s WALL (      22 calls)
                                        4.19s GPU  (      22 calls)
     PAW_pot      :     27.30s CPU      7.24s WALL (      22 calls)
     mix_rho      :      5.79s CPU      2.98s WALL (      21 calls)

     Called by c_bands:
     init_us_2_gp :      0.14s CPU      0.17s WALL (      43 calls)
     regterg      :      3.63s CPU      7.22s WALL (      21 calls)

     Called by sum_band:
     sum_band:wei :      0.00s CPU      0.00s WALL (      21 calls)
                                        0.00s GPU  (      21 calls)
     sum_band:loo :      1.75s CPU      2.27s WALL (      21 calls)
                                        2.27s GPU  (      21 calls)
     sum_band:buf :      0.00s CPU      0.00s WALL (      21 calls)
                                        0.00s GPU  (      21 calls)
     sum_band:ini :      0.06s CPU      0.08s WALL (      21 calls)
                                        0.08s GPU  (      21 calls)
     sum_band:cal :      0.05s CPU      0.06s WALL (      21 calls)
                                        0.06s GPU  (      21 calls)
     sum_band:bec :      0.05s CPU      0.06s WALL (      21 calls)
                                        0.06s GPU  (      21 calls)
     addusdens    :      0.30s CPU      0.33s WALL (      21 calls)
                                        0.33s GPU  (      21 calls)
     addusd:skk   :      0.06s CPU      0.15s WALL (      42 calls)
                                        0.11s GPU  (      42 calls)

     Called by *egterg:
     rdiaghg      :      1.12s CPU      1.29s WALL (      77 calls)
                                        1.27s GPU  (      77 calls)
     regterg:over :      0.11s CPU      0.14s WALL (      56 calls)
     regterg:upda :      0.07s CPU      0.08s WALL (      56 calls)
     regterg:last :      0.12s CPU      0.14s WALL (      49 calls)
     h_psi        :      1.84s CPU      4.60s WALL (      78 calls)
                                        4.58s GPU  (      78 calls)
     s_psi        :      0.07s CPU      0.23s WALL (      78 calls)
                                        0.21s GPU  (      78 calls)
     g_psi        :      0.00s CPU      0.01s WALL (      56 calls)
                                        0.01s GPU  (      56 calls)

     Called by h_psi:
     h_psi:calbec :      0.11s CPU      0.19s WALL (      78 calls)
                                        0.19s GPU  (      78 calls)
     vloc_psi     :      1.58s CPU      4.17s WALL (      78 calls)
                                        4.15s GPU  (      78 calls)
     add_vuspsi   :      0.05s CPU      0.20s WALL (      78 calls)
                                        0.20s GPU  (      78 calls)

     General routines
     calbec       :      0.17s CPU      0.27s WALL (     103 calls)
     fft          :     22.10s CPU      7.85s WALL (     249 calls)
                                        0.36s GPU  (      26 calls)
     ffts         :      1.66s CPU      0.44s WALL (      43 calls)
     fftw         :      2.81s CPU      5.92s WALL (    2726 calls)
                                        5.36s GPU  (    2726 calls)
     interpolate  :      3.42s CPU      1.10s WALL (      22 calls)
 
     Parallel routines

     PAW routines
     PAW_pot      :     27.30s CPU      7.24s WALL (      22 calls)
 
     PWSCF        :   1m44.30s CPU     44.35s WALL

 
   This run was terminated on:   0:39:44  30Sep2021            

=------------------------------------------------------------------------------=
   JOB DONE.
=------------------------------------------------------------------------------=
