
     Program PWSCF v.6.8 starts on 30Sep2021 at  0:28:20 

     This program is part of the open-source Quantum ESPRESSO suite
     for quantum simulation of materials; please cite
         "P. Giannozzi et al., J. Phys.:Condens. Matter 21 395502 (2009);
         "P. Giannozzi et al., J. Phys.:Condens. Matter 29 465901 (2017);
         "P. Giannozzi et al., J. Chem. Phys. 152 154105 (2020);
          URL http://www.quantum-espresso.org", 
     in publications or presentations arising from this work. More details at
     http://www.quantum-espresso.org/quote

     Parallel version (MPI & OpenMP), running on      64 processor cores
     Number of MPI processes:                16
     Threads/MPI process:                     4

     MPI processes distributed on     2 nodes
     R & G space division:  proc/nbgrp/npool/nimage =      16
     284703 MiB available memory on the printing compute node when the environment starts
 
     Reading input from 006.in

     Current dimensions of program PWSCF are:
     Max number of different atomic species (ntypx) = 10
     Max number of k-points (npk) =  40000
     Max angular momentum in pseudopotentials (lmaxx) =  4
     file O.pbe-n-kjpaw_psl.0.1.UPF: wavefunction(s)  2P renormalized

     gamma-point specific algorithms are used

     Subspace diagonalization in iterative solution of the eigenvalue problem:
     a serial algorithm will be used

 
     Parallelization info
     --------------------
     sticks:   dense  smooth     PW     G-vecs:    dense   smooth      PW
     Min        1536     768    191               181268    64088    8008
     Max        1538     769    194               181274    64093    8016
     Sum       24593   12289   3077              2900329  1025437  128203
 
     Using Slab Decomposition
 


     bravais-lattice index     =            1
     lattice parameter (alat)  =      25.3715  a.u.
     unit-cell volume          =   16331.8931 (a.u.)^3
     number of atoms/cell      =           96
     number of atomic types    =            2
     number of electrons       =       256.00
     number of Kohn-Sham states=          128
     kinetic-energy cutoff     =      60.0000  Ry
     charge density cutoff     =     480.0000  Ry
     scf convergence threshold =      1.0E-10
     mixing beta               =       0.7000
     number of iterations used =            8  plain     mixing
     Exchange-correlation= SLA  PW   PBX  PBC
                           (   1   4   3   4   0   0   0)

     GPU acceleration is ACTIVE.


     GPU used by master process:

        Device Number: 0
        Device name: Tesla V100-SXM2-16GB
        Compute capability : 70
        Ratio of single to double precision performance  : 2
        Memory Clock Rate (KHz): 877000
        Memory Bus Width (bits): 4096
        Peak Memory Bandwidth (GB/s): 898.05

     celldm(1)=  25.371463  celldm(2)=   0.000000  celldm(3)=   0.000000
     celldm(4)=   0.000000  celldm(5)=   0.000000  celldm(6)=   0.000000

     crystal axes: (cart. coord. in units of alat)
               a(1) = (   1.000000   0.000000   0.000000 )  
               a(2) = (   0.000000   1.000000   0.000000 )  
               a(3) = (   0.000000   0.000000   1.000000 )  

     reciprocal axes: (cart. coord. in units 2 pi/alat)
               b(1) = (  1.000000  0.000000  0.000000 )  
               b(2) = (  0.000000  1.000000  0.000000 )  
               b(3) = (  0.000000  0.000000  1.000000 )  


     PseudoPot. # 1 for H  read from file:
     ./H.pbe-rrkjus_psl.1.0.0.UPF
     MD5 check sum: f52b6d4d1c606e5624b1dc7b2218f220
     Pseudo is Ultrasoft, Zval =  1.0
     Generated using "atomic" code by A. Dal Corso  v.5.1
     Using radial grid of  929 points,  2 beta functions with: 
                l(1) =   0
                l(2) =   0
     Q(r) pseudized with 0 coefficients 


     PseudoPot. # 2 for O  read from file:
     ./O.pbe-n-kjpaw_psl.0.1.UPF
     MD5 check sum: 0234752ac141de4415c5fc33072bef88
     Pseudo is Projector augmented-wave + core cor, Zval =  6.0
     Generated using "atomic" code by A. Dal Corso  v.5.0.99 svn rev. 10869
     Shape of augmentation charge: BESSEL
     Using radial grid of 1095 points,  4 beta functions with: 
                l(1) =   0
                l(2) =   0
                l(3) =   1
                l(4) =   1
     Q(r) pseudized with 0 coefficients 


     atomic species   valence    mass     pseudopotential
        H              1.00     1.00000     H ( 1.00)
        O              6.00    16.00000     O ( 1.00)

     No symmetry found


                                    s                        frac. trans.

      isym =  1     identity                                     

 cryst.   s( 1) = (     1          0          0      )
                  (     0          1          0      )
                  (     0          0          1      )

 cart.    s( 1) = (  1.0000000  0.0000000  0.0000000 )
                  (  0.0000000  1.0000000  0.0000000 )
                  (  0.0000000  0.0000000  1.0000000 )


     point group C_1 (1)    
     there are  1 classes
     the character table:

       E    
A      1.00

     the symmetry operations in each class and the name of the first element:

     E        1
          identity                                               

   Cartesian axes

     site n.     atom                  positions (alat units)
         1           O   tau(   1) = (  -0.1677126   0.2331491   0.0457977  )
         2           H   tau(   2) = (  -0.1487420   0.2347132  -0.0262416  )
         3           H   tau(   3) = (  -0.2198577   0.1810115   0.0565232  )
         4           O   tau(   4) = (   0.0725004   0.3696753  -0.0871756  )
         5           H   tau(   5) = (   0.1011016   0.3257307  -0.0343081  )
         6           H   tau(   6) = (   0.1268725   0.4103426  -0.1177879  )
         7           O   tau(   7) = (   0.0386854   0.0210234  -0.3209906  )
         8           H   tau(   8) = (   0.1016975   0.0311530  -0.2826546  )
         9           H   tau(   9) = (  -0.0176456   0.0544660  -0.2855147  )
        10           O   tau(  10) = (  -0.0232094   0.0706286   0.0767824  )
        11           H   tau(  11) = (  -0.0593185   0.0067079   0.0641948  )
        12           H   tau(  12) = (  -0.0725466   0.1247028   0.0903381  )
        13           O   tau(  13) = (  -0.0984366  -0.1023790  -0.1819619  )
        14           H   tau(  14) = (  -0.0255854  -0.0923462  -0.1701490  )
        15           H   tau(  15) = (  -0.1269038  -0.0417280  -0.2144958  )
        16           O   tau(  16) = (   0.0462826   0.0206510   0.2632862  )
        17           H   tau(  17) = (   0.0396537   0.0552108   0.1976672  )
        18           H   tau(  18) = (  -0.0015351  -0.0363578   0.2662655  )
        19           O   tau(  19) = (  -0.1530843  -0.1020289   0.0176434  )
        20           H   tau(  20) = (  -0.2199322  -0.0750886   0.0364129  )
        21           H   tau(  21) = (  -0.1438708  -0.0964204  -0.0560867  )
        22           O   tau(  22) = (  -0.2794660  -0.0535260   0.2578489  )
        23           H   tau(  23) = (  -0.3048570  -0.0373559   0.3260003  )
        24           H   tau(  24) = (  -0.2076352  -0.0727648   0.2620944  )
        25           O   tau(  25) = (  -0.2521160   0.1306614  -0.3690243  )
        26           H   tau(  26) = (  -0.3247736   0.1294697  -0.3853359  )
        27           H   tau(  27) = (  -0.2137278   0.1541978  -0.4283346  )
        28           O   tau(  28) = (   0.2862647  -0.3036526   0.0305288  )
        29           H   tau(  29) = (   0.3374341  -0.3065127   0.0845285  )
        30           H   tau(  30) = (   0.2254126  -0.2689140   0.0557783  )
        31           O   tau(  31) = (  -0.1175041   0.1026560  -0.2199106  )
        32           H   tau(  32) = (  -0.1070095   0.1678281  -0.1854700  )
        33           H   tau(  33) = (  -0.1642865   0.1120408  -0.2770982  )
        34           O   tau(  34) = (   0.3454782   0.2249561   0.1286966  )
        35           H   tau(  35) = (   0.3002674   0.2802964   0.1077670  )
        36           H   tau(  36) = (   0.4075220   0.2534083   0.1584150  )
        37           O   tau(  37) = (   0.2809765  -0.1086578  -0.0161344  )
        38           H   tau(  38) = (   0.2152086  -0.0917503  -0.0467317  )
        39           H   tau(  39) = (   0.2981074  -0.1794607  -0.0316565  )
        40           O   tau(  40) = (  -0.0714293  -0.2565649   0.1133532  )
        41           H   tau(  41) = (  -0.0955169  -0.1996231   0.0718665  )
        42           H   tau(  42) = (  -0.0358789  -0.3056041   0.0700045  )
        43           O   tau(  43) = (   0.2059727   0.0711500  -0.2028542  )
        44           H   tau(  44) = (   0.2764330   0.0577432  -0.2228080  )
        45           H   tau(  45) = (   0.2042596   0.0952823  -0.1324088  )
        46           O   tau(  46) = (  -0.2903627   0.0821734   0.1114911  )
        47           H   tau(  47) = (  -0.2962021   0.0398674   0.1724922  )
        48           H   tau(  48) = (  -0.3584098   0.1005705   0.0874333  )
        49           O   tau(  49) = (  -0.3610539  -0.2024237  -0.0920095  )
        50           H   tau(  50) = (  -0.3709824  -0.1869313  -0.0198361  )
        51           H   tau(  51) = (  -0.3379793  -0.1411917  -0.1275898  )
        52           O   tau(  52) = (  -0.0939081  -0.1239565   0.2767675  )
        53           H   tau(  53) = (  -0.0875771  -0.1805258   0.2287264  )
        54           H   tau(  54) = (  -0.0797564  -0.1482452   0.3457381  )
        55           O   tau(  55) = (   0.3316245   0.0110428   0.1304097  )
        56           H   tau(  56) = (   0.3197818   0.0837375   0.1192373  )
        57           H   tau(  57) = (   0.3039170  -0.0276955   0.0732072  )
        58           O   tau(  58) = (   0.1715619   0.3108342   0.0854223  )
        59           H   tau(  59) = (   0.1215098   0.2814137   0.1320483  )
        60           H   tau(  60) = (   0.1551758   0.3824117   0.0732817  )
        61           O   tau(  61) = (  -0.3729264  -0.1628288   0.1188649  )
        62           H   tau(  62) = (  -0.4434910  -0.1834604   0.1307821  )
        63           H   tau(  63) = (  -0.3536653  -0.1104975   0.1682467  )
        64           O   tau(  64) = (  -0.1055720   0.2878936  -0.1457485  )
        65           H   tau(  65) = (  -0.1287435   0.3237941  -0.2067421  )
        66           H   tau(  66) = (  -0.0392604   0.3146328  -0.1248860  )
        67           O   tau(  67) = (   0.2479063  -0.1710740  -0.2814926  )
        68           H   tau(  68) = (   0.2800082  -0.1304663  -0.3350678  )
        69           H   tau(  69) = (   0.2991502  -0.2142812  -0.2490407  )
        70           O   tau(  70) = (  -0.3348212   0.0081826  -0.1456666  )
        71           H   tau(  71) = (  -0.2670349   0.0389736  -0.1439163  )
        72           H   tau(  72) = (  -0.3830411   0.0559556  -0.1762714  )
        73           O   tau(  73) = (  -0.0461724  -0.3937688  -0.0327067  )
        74           H   tau(  74) = (  -0.0901691  -0.4212975  -0.0861254  )
        75           H   tau(  75) = (   0.0245337  -0.3940146  -0.0561910  )
        76           O   tau(  76) = (   0.1664226   0.1239580  -0.0176240  )
        77           H   tau(  77) = (   0.1898846   0.1849590   0.0180903  )
        78           H   tau(  78) = (   0.1065388   0.0963250   0.0170475  )
        79           O   tau(  79) = (  -0.0742447  -0.2909757  -0.2680635  )
        80           H   tau(  80) = (  -0.0810599  -0.2193609  -0.2487651  )
        81           H   tau(  81) = (  -0.0021309  -0.3096633  -0.2691062  )
        82           O   tau(  82) = (   0.2546097  -0.0631789   0.3136362  )
        83           H   tau(  83) = (   0.3021295  -0.0523268   0.2572531  )
        84           H   tau(  84) = (   0.1846708  -0.0584120   0.2883867  )
        85           O   tau(  85) = (   0.2239975   0.1559854   0.3227976  )
        86           H   tau(  86) = (   0.2573656   0.1734888   0.2585938  )
        87           H   tau(  87) = (   0.1901080   0.0899940   0.3160197  )
        88           O   tau(  88) = (   0.1273939  -0.1817399   0.1421779  )
        89           H   tau(  89) = (   0.0546991  -0.1854119   0.1263876  )
        90           H   tau(  90) = (   0.1389386  -0.2050752   0.2119678  )
        91           O   tau(  91) = (   0.1146574  -0.1169850  -0.1401549  )
        92           H   tau(  92) = (   0.1324587  -0.0486325  -0.1637956  )
        93           H   tau(  93) = (   0.1562930  -0.1672754  -0.1760331  )
        94           O   tau(  94) = (  -0.0104953   0.2521421   0.1568509  )
        95           H   tau(  95) = (  -0.0361172   0.2396291   0.2256726  )
        96           H   tau(  96) = (  -0.0677126   0.2656234   0.1111187  )

   Crystallographic axes

     site n.     atom                  positions (cryst. coord.)
         1           O   tau(   1) = ( -0.1677126  0.2331491  0.0457977  )
         2           H   tau(   2) = ( -0.1487420  0.2347132 -0.0262416  )
         3           H   tau(   3) = ( -0.2198577  0.1810115  0.0565232  )
         4           O   tau(   4) = (  0.0725004  0.3696753 -0.0871756  )
         5           H   tau(   5) = (  0.1011016  0.3257307 -0.0343081  )
         6           H   tau(   6) = (  0.1268725  0.4103426 -0.1177879  )
         7           O   tau(   7) = (  0.0386854  0.0210234 -0.3209906  )
         8           H   tau(   8) = (  0.1016975  0.0311530 -0.2826546  )
         9           H   tau(   9) = ( -0.0176456  0.0544660 -0.2855147  )
        10           O   tau(  10) = ( -0.0232094  0.0706286  0.0767824  )
        11           H   tau(  11) = ( -0.0593185  0.0067079  0.0641948  )
        12           H   tau(  12) = ( -0.0725466  0.1247028  0.0903381  )
        13           O   tau(  13) = ( -0.0984366 -0.1023790 -0.1819619  )
        14           H   tau(  14) = ( -0.0255854 -0.0923462 -0.1701490  )
        15           H   tau(  15) = ( -0.1269038 -0.0417280 -0.2144958  )
        16           O   tau(  16) = (  0.0462826  0.0206510  0.2632862  )
        17           H   tau(  17) = (  0.0396537  0.0552108  0.1976672  )
        18           H   tau(  18) = ( -0.0015351 -0.0363578  0.2662655  )
        19           O   tau(  19) = ( -0.1530843 -0.1020289  0.0176434  )
        20           H   tau(  20) = ( -0.2199322 -0.0750886  0.0364129  )
        21           H   tau(  21) = ( -0.1438708 -0.0964204 -0.0560867  )
        22           O   tau(  22) = ( -0.2794660 -0.0535260  0.2578489  )
        23           H   tau(  23) = ( -0.3048570 -0.0373559  0.3260003  )
        24           H   tau(  24) = ( -0.2076352 -0.0727648  0.2620944  )
        25           O   tau(  25) = ( -0.2521160  0.1306614 -0.3690243  )
        26           H   tau(  26) = ( -0.3247736  0.1294697 -0.3853359  )
        27           H   tau(  27) = ( -0.2137278  0.1541978 -0.4283346  )
        28           O   tau(  28) = (  0.2862647 -0.3036526  0.0305288  )
        29           H   tau(  29) = (  0.3374341 -0.3065127  0.0845285  )
        30           H   tau(  30) = (  0.2254126 -0.2689140  0.0557783  )
        31           O   tau(  31) = ( -0.1175041  0.1026560 -0.2199106  )
        32           H   tau(  32) = ( -0.1070095  0.1678281 -0.1854700  )
        33           H   tau(  33) = ( -0.1642865  0.1120408 -0.2770982  )
        34           O   tau(  34) = (  0.3454782  0.2249561  0.1286966  )
        35           H   tau(  35) = (  0.3002674  0.2802964  0.1077670  )
        36           H   tau(  36) = (  0.4075220  0.2534083  0.1584150  )
        37           O   tau(  37) = (  0.2809765 -0.1086578 -0.0161344  )
        38           H   tau(  38) = (  0.2152086 -0.0917503 -0.0467317  )
        39           H   tau(  39) = (  0.2981074 -0.1794607 -0.0316565  )
        40           O   tau(  40) = ( -0.0714293 -0.2565649  0.1133532  )
        41           H   tau(  41) = ( -0.0955169 -0.1996231  0.0718665  )
        42           H   tau(  42) = ( -0.0358789 -0.3056041  0.0700045  )
        43           O   tau(  43) = (  0.2059727  0.0711500 -0.2028542  )
        44           H   tau(  44) = (  0.2764330  0.0577432 -0.2228080  )
        45           H   tau(  45) = (  0.2042596  0.0952823 -0.1324088  )
        46           O   tau(  46) = ( -0.2903627  0.0821734  0.1114911  )
        47           H   tau(  47) = ( -0.2962021  0.0398674  0.1724922  )
        48           H   tau(  48) = ( -0.3584098  0.1005705  0.0874333  )
        49           O   tau(  49) = ( -0.3610539 -0.2024237 -0.0920095  )
        50           H   tau(  50) = ( -0.3709824 -0.1869313 -0.0198361  )
        51           H   tau(  51) = ( -0.3379793 -0.1411917 -0.1275898  )
        52           O   tau(  52) = ( -0.0939081 -0.1239565  0.2767675  )
        53           H   tau(  53) = ( -0.0875771 -0.1805258  0.2287264  )
        54           H   tau(  54) = ( -0.0797564 -0.1482452  0.3457381  )
        55           O   tau(  55) = (  0.3316245  0.0110428  0.1304097  )
        56           H   tau(  56) = (  0.3197818  0.0837375  0.1192373  )
        57           H   tau(  57) = (  0.3039170 -0.0276955  0.0732072  )
        58           O   tau(  58) = (  0.1715619  0.3108342  0.0854223  )
        59           H   tau(  59) = (  0.1215098  0.2814137  0.1320483  )
        60           H   tau(  60) = (  0.1551758  0.3824117  0.0732817  )
        61           O   tau(  61) = ( -0.3729264 -0.1628288  0.1188649  )
        62           H   tau(  62) = ( -0.4434910 -0.1834604  0.1307821  )
        63           H   tau(  63) = ( -0.3536653 -0.1104975  0.1682467  )
        64           O   tau(  64) = ( -0.1055720  0.2878936 -0.1457485  )
        65           H   tau(  65) = ( -0.1287435  0.3237941 -0.2067421  )
        66           H   tau(  66) = ( -0.0392604  0.3146328 -0.1248860  )
        67           O   tau(  67) = (  0.2479063 -0.1710740 -0.2814926  )
        68           H   tau(  68) = (  0.2800082 -0.1304663 -0.3350678  )
        69           H   tau(  69) = (  0.2991502 -0.2142812 -0.2490407  )
        70           O   tau(  70) = ( -0.3348212  0.0081826 -0.1456666  )
        71           H   tau(  71) = ( -0.2670349  0.0389736 -0.1439163  )
        72           H   tau(  72) = ( -0.3830411  0.0559556 -0.1762714  )
        73           O   tau(  73) = ( -0.0461724 -0.3937688 -0.0327067  )
        74           H   tau(  74) = ( -0.0901691 -0.4212975 -0.0861254  )
        75           H   tau(  75) = (  0.0245337 -0.3940146 -0.0561910  )
        76           O   tau(  76) = (  0.1664226  0.1239580 -0.0176240  )
        77           H   tau(  77) = (  0.1898846  0.1849590  0.0180903  )
        78           H   tau(  78) = (  0.1065388  0.0963250  0.0170475  )
        79           O   tau(  79) = ( -0.0742447 -0.2909757 -0.2680635  )
        80           H   tau(  80) = ( -0.0810599 -0.2193609 -0.2487651  )
        81           H   tau(  81) = ( -0.0021309 -0.3096633 -0.2691062  )
        82           O   tau(  82) = (  0.2546097 -0.0631789  0.3136362  )
        83           H   tau(  83) = (  0.3021295 -0.0523268  0.2572531  )
        84           H   tau(  84) = (  0.1846708 -0.0584120  0.2883867  )
        85           O   tau(  85) = (  0.2239975  0.1559854  0.3227976  )
        86           H   tau(  86) = (  0.2573656  0.1734888  0.2585938  )
        87           H   tau(  87) = (  0.1901080  0.0899940  0.3160197  )
        88           O   tau(  88) = (  0.1273939 -0.1817399  0.1421779  )
        89           H   tau(  89) = (  0.0546991 -0.1854119  0.1263876  )
        90           H   tau(  90) = (  0.1389386 -0.2050752  0.2119678  )
        91           O   tau(  91) = (  0.1146574 -0.1169850 -0.1401549  )
        92           H   tau(  92) = (  0.1324587 -0.0486325 -0.1637956  )
        93           H   tau(  93) = (  0.1562930 -0.1672754 -0.1760331  )
        94           O   tau(  94) = ( -0.0104953  0.2521421  0.1568509  )
        95           H   tau(  95) = ( -0.0361172  0.2396291  0.2256726  )
        96           H   tau(  96) = ( -0.0677126  0.2656234  0.1111187  )

     number of k points=     1
                       cart. coord. in units 2pi/alat
        k(    1) = (   0.0000000   0.0000000   0.0000000), wk =   2.0000000

                       cryst. coord.
        k(    1) = (   0.0000000   0.0000000   0.0000000), wk =   2.0000000

     Dense  grid:  1450165 G-vectors     FFT dimensions: ( 180, 180, 180)

     Smooth grid:   512719 G-vectors     FFT dimensions: ( 125, 125, 125)

     Dynamical RAM for                 wfc:       7.82 MB

     Dynamical RAM for     wfc (w. buffer):       7.82 MB

     Dynamical RAM for           str. fact:       2.77 MB

     Dynamical RAM for           local pot:       0.00 MB

     Dynamical RAM for          nlocal pot:      23.47 MB

     Dynamical RAM for                qrad:       1.00 MB

     Dynamical RAM for          rho,v,vnew:      13.05 MB

     Dynamical RAM for               rhoin:       4.35 MB

     Dynamical RAM for            rho*nmix:      22.13 MB

     Dynamical RAM for           G-vectors:       5.43 MB

     Dynamical RAM for          h,s,v(r/c):       1.50 MB

     Dynamical RAM for          <psi|beta>:       0.38 MB

     Dynamical RAM for                 psi:      15.64 MB

     Dynamical RAM for                hpsi:      15.64 MB

     Dynamical RAM for                spsi:      15.64 MB

     Dynamical RAM for      wfcinit/wfcrot:      24.31 MB

     Dynamical RAM for           addusdens:     147.98 MB

     Dynamical RAM for          addusforce:     322.98 MB

     Estimated static dynamical RAM per process >      76.87 MB

     Estimated max dynamical RAM per process >     421.98 MB

     Estimated total dynamical RAM >       6.59 GB

     Initial potential from superposition of free atoms

     starting charge  255.99934, renormalised to  256.00000

     negative rho (up, down):  2.364E-04 0.000E+00
     Starting wfcs are  192 randomized atomic wfcs
     Checking if some PAW data can be deallocated... 

     total cpu time spent up to now is        2.7 secs

     per-process dynamical memory:   772.5 Mb

     Self-consistent Calculation
[tb_dev] Currently allocated     3.25E+01 Mbytes, locked:    0 /  11
[tb_pin] Currently allocated     0.00E+00 Mbytes, locked:    0 /   0

     iteration #  1     ecut=    60.00 Ry     beta= 0.70
     Davidson diagonalization with overlap

---- Real-time Memory Report at c_bands before calling an iterative solver
          1310 MiB given to the printing process from OS
           757 MiB allocation reported by mallinfo(arena+hblkhd)
        276966 MiB available memory on the node where the printing process lives
     GPU memory used/free/total (MiB): 1505 / 14655 / 16160
------------------
     ethr =  1.00E-02,  avg # of iterations =  2.0

     negative rho (up, down):  8.555E-04 0.000E+00

     total cpu time spent up to now is        3.3 secs

     total energy              =   -1404.32155783 Ry
     estimated scf accuracy    <      12.26822074 Ry
[tb_dev] Currently allocated     1.79E+02 Mbytes, locked:    0 /  15
[tb_pin] Currently allocated     1.38E+00 Mbytes, locked:    0 /   1

     iteration #  2     ecut=    60.00 Ry     beta= 0.70
     Davidson diagonalization with overlap

---- Real-time Memory Report at c_bands before calling an iterative solver
          1372 MiB given to the printing process from OS
           816 MiB allocation reported by mallinfo(arena+hblkhd)
        275372 MiB available memory on the node where the printing process lives
     GPU memory used/free/total (MiB): 1811 / 14349 / 16160
------------------
     ethr =  4.79E-03,  avg # of iterations =  3.0

     negative rho (up, down):  8.038E-04 0.000E+00

     total cpu time spent up to now is        4.0 secs

     total energy              =   -1408.04389978 Ry
     estimated scf accuracy    <       9.84770144 Ry
[tb_dev] Currently allocated     1.79E+02 Mbytes, locked:    0 /  15
[tb_pin] Currently allocated     1.38E+00 Mbytes, locked:    0 /   1

     iteration #  3     ecut=    60.00 Ry     beta= 0.70
     Davidson diagonalization with overlap

---- Real-time Memory Report at c_bands before calling an iterative solver
          1374 MiB given to the printing process from OS
           821 MiB allocation reported by mallinfo(arena+hblkhd)
        275321 MiB available memory on the node where the printing process lives
     GPU memory used/free/total (MiB): 1811 / 14349 / 16160
------------------
     ethr =  3.85E-03,  avg # of iterations =  2.0

     negative rho (up, down):  6.862E-04 0.000E+00

     total cpu time spent up to now is        4.6 secs

     total energy              =   -1409.45633165 Ry
     estimated scf accuracy    <       0.35293917 Ry
[tb_dev] Currently allocated     1.79E+02 Mbytes, locked:    0 /  15
[tb_pin] Currently allocated     1.38E+00 Mbytes, locked:    0 /   1

     iteration #  4     ecut=    60.00 Ry     beta= 0.70
     Davidson diagonalization with overlap

---- Real-time Memory Report at c_bands before calling an iterative solver
          1377 MiB given to the printing process from OS
           822 MiB allocation reported by mallinfo(arena+hblkhd)
        275307 MiB available memory on the node where the printing process lives
     GPU memory used/free/total (MiB): 1811 / 14349 / 16160
------------------
     ethr =  1.38E-04,  avg # of iterations =  4.0

     negative rho (up, down):  9.075E-04 0.000E+00

     total cpu time spent up to now is        5.3 secs

     total energy              =   -1409.77286126 Ry
     estimated scf accuracy    <       0.48247164 Ry
[tb_dev] Currently allocated     1.79E+02 Mbytes, locked:    0 /  15
[tb_pin] Currently allocated     1.38E+00 Mbytes, locked:    0 /   1

     iteration #  5     ecut=    60.00 Ry     beta= 0.70
     Davidson diagonalization with overlap

---- Real-time Memory Report at c_bands before calling an iterative solver
          1382 MiB given to the printing process from OS
           825 MiB allocation reported by mallinfo(arena+hblkhd)
        275295 MiB available memory on the node where the printing process lives
     GPU memory used/free/total (MiB): 1811 / 14349 / 16160
------------------
     ethr =  1.38E-04,  avg # of iterations =  2.0

     negative rho (up, down):  9.618E-04 0.000E+00

     total cpu time spent up to now is        5.8 secs

     total energy              =   -1409.78391884 Ry
     estimated scf accuracy    <       0.10975102 Ry
[tb_dev] Currently allocated     1.79E+02 Mbytes, locked:    0 /  15
[tb_pin] Currently allocated     1.38E+00 Mbytes, locked:    0 /   1

     iteration #  6     ecut=    60.00 Ry     beta= 0.70
     Davidson diagonalization with overlap

---- Real-time Memory Report at c_bands before calling an iterative solver
          1385 MiB given to the printing process from OS
           826 MiB allocation reported by mallinfo(arena+hblkhd)
        275259 MiB available memory on the node where the printing process lives
     GPU memory used/free/total (MiB): 1811 / 14349 / 16160
------------------
     ethr =  4.29E-05,  avg # of iterations =  2.0

     negative rho (up, down):  9.946E-04 0.000E+00

     total cpu time spent up to now is        6.4 secs

     total energy              =   -1409.77801074 Ry
     estimated scf accuracy    <       0.04850611 Ry
[tb_dev] Currently allocated     1.79E+02 Mbytes, locked:    0 /  15
[tb_pin] Currently allocated     1.38E+00 Mbytes, locked:    0 /   1

     iteration #  7     ecut=    60.00 Ry     beta= 0.70
     Davidson diagonalization with overlap

---- Real-time Memory Report at c_bands before calling an iterative solver
          1386 MiB given to the printing process from OS
           828 MiB allocation reported by mallinfo(arena+hblkhd)
        275239 MiB available memory on the node where the printing process lives
     GPU memory used/free/total (MiB): 1811 / 14349 / 16160
------------------
     ethr =  1.89E-05,  avg # of iterations =  2.0

     negative rho (up, down):  1.024E-03 0.000E+00

     total cpu time spent up to now is        7.0 secs

     total energy              =   -1409.77586495 Ry
     estimated scf accuracy    <       0.01505750 Ry
[tb_dev] Currently allocated     1.79E+02 Mbytes, locked:    0 /  15
[tb_pin] Currently allocated     1.38E+00 Mbytes, locked:    0 /   1

     iteration #  8     ecut=    60.00 Ry     beta= 0.70
     Davidson diagonalization with overlap

---- Real-time Memory Report at c_bands before calling an iterative solver
          1388 MiB given to the printing process from OS
           830 MiB allocation reported by mallinfo(arena+hblkhd)
        275232 MiB available memory on the node where the printing process lives
     GPU memory used/free/total (MiB): 1811 / 14349 / 16160
------------------
     ethr =  5.88E-06,  avg # of iterations =  3.0

     negative rho (up, down):  1.017E-03 0.000E+00

     total cpu time spent up to now is        7.6 secs

     total energy              =   -1409.77934443 Ry
     estimated scf accuracy    <       0.00038355 Ry
[tb_dev] Currently allocated     1.79E+02 Mbytes, locked:    0 /  15
[tb_pin] Currently allocated     1.38E+00 Mbytes, locked:    0 /   1

     iteration #  9     ecut=    60.00 Ry     beta= 0.70
     Davidson diagonalization with overlap

---- Real-time Memory Report at c_bands before calling an iterative solver
          1392 MiB given to the printing process from OS
           833 MiB allocation reported by mallinfo(arena+hblkhd)
        275216 MiB available memory on the node where the printing process lives
     GPU memory used/free/total (MiB): 1811 / 14349 / 16160
------------------
     ethr =  1.50E-07,  avg # of iterations =  4.0

     negative rho (up, down):  1.001E-03 0.000E+00

     total cpu time spent up to now is        8.3 secs

     total energy              =   -1409.77990156 Ry
     estimated scf accuracy    <       0.00063477 Ry
[tb_dev] Currently allocated     1.79E+02 Mbytes, locked:    0 /  15
[tb_pin] Currently allocated     1.38E+00 Mbytes, locked:    0 /   1

     iteration # 10     ecut=    60.00 Ry     beta= 0.70
     Davidson diagonalization with overlap

---- Real-time Memory Report at c_bands before calling an iterative solver
          1393 MiB given to the printing process from OS
           834 MiB allocation reported by mallinfo(arena+hblkhd)
        275190 MiB available memory on the node where the printing process lives
     GPU memory used/free/total (MiB): 1811 / 14349 / 16160
------------------
     ethr =  1.50E-07,  avg # of iterations =  1.0

     negative rho (up, down):  9.839E-04 0.000E+00

     total cpu time spent up to now is        8.8 secs

     total energy              =   -1409.77967866 Ry
     estimated scf accuracy    <       0.00048709 Ry
[tb_dev] Currently allocated     1.79E+02 Mbytes, locked:    0 /  15
[tb_pin] Currently allocated     1.38E+00 Mbytes, locked:    0 /   1

     iteration # 11     ecut=    60.00 Ry     beta= 0.70
     Davidson diagonalization with overlap

---- Real-time Memory Report at c_bands before calling an iterative solver
          1393 MiB given to the printing process from OS
           835 MiB allocation reported by mallinfo(arena+hblkhd)
        275184 MiB available memory on the node where the printing process lives
     GPU memory used/free/total (MiB): 1811 / 14349 / 16160
------------------
     ethr =  1.50E-07,  avg # of iterations =  2.0

     negative rho (up, down):  9.798E-04 0.000E+00

     total cpu time spent up to now is        9.4 secs

     total energy              =   -1409.77975389 Ry
     estimated scf accuracy    <       0.00001354 Ry
[tb_dev] Currently allocated     1.79E+02 Mbytes, locked:    0 /  15
[tb_pin] Currently allocated     1.38E+00 Mbytes, locked:    0 /   1

     iteration # 12     ecut=    60.00 Ry     beta= 0.70
     Davidson diagonalization with overlap

---- Real-time Memory Report at c_bands before calling an iterative solver
          1393 MiB given to the printing process from OS
           835 MiB allocation reported by mallinfo(arena+hblkhd)
        275173 MiB available memory on the node where the printing process lives
     GPU memory used/free/total (MiB): 1811 / 14349 / 16160
------------------
     ethr =  5.29E-09,  avg # of iterations =  4.0

     negative rho (up, down):  9.811E-04 0.000E+00

     total cpu time spent up to now is       10.1 secs

     total energy              =   -1409.77976504 Ry
     estimated scf accuracy    <       0.00001110 Ry
[tb_dev] Currently allocated     1.79E+02 Mbytes, locked:    0 /  15
[tb_pin] Currently allocated     1.38E+00 Mbytes, locked:    0 /   1

     iteration # 13     ecut=    60.00 Ry     beta= 0.70
     Davidson diagonalization with overlap

---- Real-time Memory Report at c_bands before calling an iterative solver
          1395 MiB given to the printing process from OS
           836 MiB allocation reported by mallinfo(arena+hblkhd)
        275167 MiB available memory on the node where the printing process lives
     GPU memory used/free/total (MiB): 1811 / 14349 / 16160
------------------
     ethr =  4.34E-09,  avg # of iterations =  2.0

     negative rho (up, down):  9.826E-04 0.000E+00

     total cpu time spent up to now is       10.6 secs

     total energy              =   -1409.77976302 Ry
     estimated scf accuracy    <       0.00000507 Ry
[tb_dev] Currently allocated     1.79E+02 Mbytes, locked:    0 /  15
[tb_pin] Currently allocated     1.38E+00 Mbytes, locked:    0 /   1

     iteration # 14     ecut=    60.00 Ry     beta= 0.70
     Davidson diagonalization with overlap

---- Real-time Memory Report at c_bands before calling an iterative solver
          1396 MiB given to the printing process from OS
           837 MiB allocation reported by mallinfo(arena+hblkhd)
        275164 MiB available memory on the node where the printing process lives
     GPU memory used/free/total (MiB): 1811 / 14349 / 16160
------------------
     ethr =  1.98E-09,  avg # of iterations =  2.0

     negative rho (up, down):  9.829E-04 0.000E+00

     total cpu time spent up to now is       11.2 secs

     total energy              =   -1409.77976411 Ry
     estimated scf accuracy    <       0.00000006 Ry
[tb_dev] Currently allocated     1.79E+02 Mbytes, locked:    0 /  15
[tb_pin] Currently allocated     1.38E+00 Mbytes, locked:    0 /   1

     iteration # 15     ecut=    60.00 Ry     beta= 0.70
     Davidson diagonalization with overlap

---- Real-time Memory Report at c_bands before calling an iterative solver
          1396 MiB given to the printing process from OS
           837 MiB allocation reported by mallinfo(arena+hblkhd)
        275164 MiB available memory on the node where the printing process lives
     GPU memory used/free/total (MiB): 1811 / 14349 / 16160
------------------
     ethr =  2.27E-11,  avg # of iterations =  4.0

     negative rho (up, down):  9.826E-04 0.000E+00

     total cpu time spent up to now is       11.9 secs

     total energy              =   -1409.77976414 Ry
     estimated scf accuracy    <       0.00000024 Ry
[tb_dev] Currently allocated     1.79E+02 Mbytes, locked:    0 /  15
[tb_pin] Currently allocated     1.38E+00 Mbytes, locked:    0 /   1

     iteration # 16     ecut=    60.00 Ry     beta= 0.70
     Davidson diagonalization with overlap

---- Real-time Memory Report at c_bands before calling an iterative solver
          1398 MiB given to the printing process from OS
           838 MiB allocation reported by mallinfo(arena+hblkhd)
        275155 MiB available memory on the node where the printing process lives
     GPU memory used/free/total (MiB): 1811 / 14349 / 16160
------------------
     ethr =  2.27E-11,  avg # of iterations =  3.0

     negative rho (up, down):  9.825E-04 0.000E+00

     total cpu time spent up to now is       12.5 secs

     total energy              =   -1409.77976415 Ry
     estimated scf accuracy    <       0.00000004 Ry
[tb_dev] Currently allocated     1.79E+02 Mbytes, locked:    0 /  15
[tb_pin] Currently allocated     1.38E+00 Mbytes, locked:    0 /   1

     iteration # 17     ecut=    60.00 Ry     beta= 0.70
     Davidson diagonalization with overlap

---- Real-time Memory Report at c_bands before calling an iterative solver
          1398 MiB given to the printing process from OS
           839 MiB allocation reported by mallinfo(arena+hblkhd)
        275149 MiB available memory on the node where the printing process lives
     GPU memory used/free/total (MiB): 1811 / 14349 / 16160
------------------
     ethr =  1.49E-11,  avg # of iterations =  2.0

     negative rho (up, down):  9.825E-04 0.000E+00

     total cpu time spent up to now is       13.1 secs

     total energy              =   -1409.77976416 Ry
     estimated scf accuracy    <          2.5E-09 Ry
[tb_dev] Currently allocated     1.79E+02 Mbytes, locked:    0 /  15
[tb_pin] Currently allocated     1.38E+00 Mbytes, locked:    0 /   1

     iteration # 18     ecut=    60.00 Ry     beta= 0.70
     Davidson diagonalization with overlap

---- Real-time Memory Report at c_bands before calling an iterative solver
          1398 MiB given to the printing process from OS
           839 MiB allocation reported by mallinfo(arena+hblkhd)
        275148 MiB available memory on the node where the printing process lives
     GPU memory used/free/total (MiB): 1811 / 14349 / 16160
------------------
     ethr =  9.90E-13,  avg # of iterations =  4.0

     negative rho (up, down):  9.825E-04 0.000E+00

     total cpu time spent up to now is       13.8 secs

     total energy              =   -1409.77976416 Ry
     estimated scf accuracy    <          2.3E-09 Ry
[tb_dev] Currently allocated     1.79E+02 Mbytes, locked:    0 /  15
[tb_pin] Currently allocated     1.38E+00 Mbytes, locked:    0 /   1

     iteration # 19     ecut=    60.00 Ry     beta= 0.70
     Davidson diagonalization with overlap

---- Real-time Memory Report at c_bands before calling an iterative solver
          1401 MiB given to the printing process from OS
           840 MiB allocation reported by mallinfo(arena+hblkhd)
        275140 MiB available memory on the node where the printing process lives
     GPU memory used/free/total (MiB): 1811 / 14349 / 16160
------------------
     ethr =  9.14E-13,  avg # of iterations =  2.0

     negative rho (up, down):  9.825E-04 0.000E+00

     total cpu time spent up to now is       14.3 secs

     total energy              =   -1409.77976416 Ry
     estimated scf accuracy    <          7.5E-10 Ry
[tb_dev] Currently allocated     1.79E+02 Mbytes, locked:    0 /  15
[tb_pin] Currently allocated     1.38E+00 Mbytes, locked:    0 /   1

     iteration # 20     ecut=    60.00 Ry     beta= 0.70
     Davidson diagonalization with overlap

---- Real-time Memory Report at c_bands before calling an iterative solver
          1401 MiB given to the printing process from OS
           840 MiB allocation reported by mallinfo(arena+hblkhd)
        275138 MiB available memory on the node where the printing process lives
     GPU memory used/free/total (MiB): 1811 / 14349 / 16160
------------------
     ethr =  2.92E-13,  avg # of iterations =  2.0

     negative rho (up, down):  9.825E-04 0.000E+00

     total cpu time spent up to now is       14.9 secs

     End of self-consistent calculation

          k = 0.0000 0.0000 0.0000 ( 64102 PWs)   bands (ev):

   -24.9188 -24.8618 -24.7738 -24.6272 -24.3786 -24.2605 -23.9456 -23.8848
   -23.7694 -23.6709 -23.6646 -23.6423 -23.5684 -23.5348 -23.5060 -23.4296
   -23.3049 -23.2491 -23.1449 -23.0874 -22.9995 -22.9859 -22.9207 -22.6528
   -22.3896 -22.1919 -22.0009 -21.6453 -21.6375 -21.5360 -21.4619 -21.3313
   -13.0422 -12.9457 -12.8230 -12.7203 -12.5319 -12.3694 -12.2648 -12.1518
   -12.0591 -11.9814 -11.9124 -11.8849 -11.8228 -11.6817 -11.6578 -11.5367
   -11.5237 -11.4201 -11.3850 -11.3487 -11.2232 -11.1742 -11.1520 -10.9721
   -10.6515 -10.5651 -10.4601 -10.3237 -10.1126  -9.9058  -9.8671  -9.6893
    -9.5365  -9.3620  -9.2771  -9.2274  -8.8261  -8.6349  -8.5779  -8.4792
    -8.4362  -8.2075  -8.1904  -8.0552  -8.0326  -7.9473  -7.7995  -7.7500
    -7.6729  -7.4462  -7.3548  -7.3029  -7.1940  -7.1441  -7.1304  -7.0920
    -7.0536  -6.9237  -6.8911  -6.8544  -6.7471  -6.6839  -6.6049  -6.5320
    -6.4091  -6.2870  -6.2376  -6.1685  -6.1228  -6.0104  -5.9993  -5.9671
    -5.8693  -5.8219  -5.8087  -5.7386  -5.7128  -5.6735  -5.5911  -5.5635
    -5.5322  -5.4566  -5.3944  -5.3602  -5.2018  -5.1542  -5.1322  -5.0208
    -4.6499  -4.5636  -4.4399  -4.1594  -4.0361  -3.9242  -3.8858  -3.5992

     occupation numbers 
     1.0000   1.0000   1.0000   1.0000   1.0000   1.0000   1.0000   1.0000
     1.0000   1.0000   1.0000   1.0000   1.0000   1.0000   1.0000   1.0000
     1.0000   1.0000   1.0000   1.0000   1.0000   1.0000   1.0000   1.0000
     1.0000   1.0000   1.0000   1.0000   1.0000   1.0000   1.0000   1.0000
     1.0000   1.0000   1.0000   1.0000   1.0000   1.0000   1.0000   1.0000
     1.0000   1.0000   1.0000   1.0000   1.0000   1.0000   1.0000   1.0000
     1.0000   1.0000   1.0000   1.0000   1.0000   1.0000   1.0000   1.0000
     1.0000   1.0000   1.0000   1.0000   1.0000   1.0000   1.0000   1.0000
     1.0000   1.0000   1.0000   1.0000   1.0000   1.0000   1.0000   1.0000
     1.0000   1.0000   1.0000   1.0000   1.0000   1.0000   1.0000   1.0000
     1.0000   1.0000   1.0000   1.0000   1.0000   1.0000   1.0000   1.0000
     1.0000   1.0000   1.0000   1.0000   1.0000   1.0000   1.0000   1.0000
     1.0000   1.0000   1.0000   1.0000   1.0000   1.0000   1.0000   1.0000
     1.0000   1.0000   1.0000   1.0000   1.0000   1.0000   1.0000   1.0000
     1.0000   1.0000   1.0000   1.0000   1.0000   1.0000   1.0000   1.0000
     1.0000   1.0000   1.0000   1.0000   1.0000   1.0000   1.0000   1.0000

     highest occupied level (ev):    -3.5992

!    total energy              =   -1409.77976416 Ry
     estimated scf accuracy    <          1.1E-11 Ry

     The total energy is the sum of the following terms:
     one-electron contribution =   -2829.58514935 Ry
     hartree contribution      =    1481.10424072 Ry
     xc contribution           =    -282.70853759 Ry
     ewald contribution        =     525.58146388 Ry
     one-center paw contrib.   =    -304.17178182 Ry
      -> PAW hartree energy AE =      56.81374276 Ry
      -> PAW hartree energy PS =     -56.54246882 Ry
      -> PAW xc energy AE      =     -34.04311261 Ry
      -> PAW xc energy PS      =      14.76312302 Ry
      -> total E_H with PAW    =    1481.37551465 Ry
      -> total E_XC with PAW   =    -301.98852718 Ry

     convergence has been achieved in  20 iterations

     negative rho (up, down):  9.825E-04 0.000E+00

     Forces acting on atoms (cartesian axes, Ry/au):

     atom    1 type  2   force =    -0.01101706   -0.00948499   -0.03883173
     atom    2 type  1   force =    -0.02417546    0.00486205    0.03085709
     atom    3 type  1   force =     0.02206110    0.01105604    0.00566553
     atom    4 type  2   force =     0.02642743    0.01458611   -0.00352024
     atom    5 type  1   force =     0.00478471    0.01790365   -0.02797072
     atom    6 type  1   force =    -0.03492958   -0.04077516    0.02289101
     atom    7 type  2   force =     0.00779460    0.00088969    0.00855110
     atom    8 type  1   force =    -0.04258575    0.01426014   -0.01831787
     atom    9 type  1   force =     0.04383613   -0.00624390   -0.00342413
     atom   10 type  2   force =    -0.01695430   -0.01638864   -0.00855397
     atom   11 type  1   force =     0.00118915    0.03039339   -0.00114906
     atom   12 type  1   force =     0.02359737   -0.03359138   -0.01542905
     atom   13 type  2   force =    -0.01200134    0.01461375    0.00571308
     atom   14 type  1   force =    -0.01967678    0.00228503   -0.01573445
     atom   15 type  1   force =     0.04048447   -0.02818180    0.02217758
     atom   16 type  2   force =     0.00510917    0.00258291    0.00465668
     atom   17 type  1   force =    -0.01265430   -0.03470658    0.02455002
     atom   18 type  1   force =     0.01910183    0.03673426   -0.02009006
     atom   19 type  2   force =    -0.02145108    0.03568928    0.01349115
     atom   20 type  1   force =     0.03782646   -0.02073770   -0.02195234
     atom   21 type  1   force =    -0.00522975   -0.00935304    0.00378057
     atom   22 type  2   force =    -0.02633364    0.03130105    0.04573903
     atom   23 type  1   force =     0.02584372   -0.01606976   -0.04801725
     atom   24 type  1   force =    -0.00126253   -0.00791100    0.01510457
     atom   25 type  2   force =    -0.01664171    0.01509133   -0.04495442
     atom   26 type  1   force =     0.05628821    0.00359101    0.00165220
     atom   27 type  1   force =    -0.03915212   -0.01598462    0.03235887
     atom   28 type  2   force =     0.00925594   -0.01178210    0.01993954
     atom   29 type  1   force =    -0.04908108    0.01077949   -0.03111112
     atom   30 type  1   force =     0.03175314   -0.00615937    0.01829619
     atom   31 type  2   force =    -0.02913655   -0.00547029   -0.01149898
     atom   32 type  1   force =    -0.00496218   -0.00711371   -0.01747969
     atom   33 type  1   force =     0.01107697    0.01115038    0.02982972
     atom   34 type  2   force =     0.03157141    0.03382301    0.01135100
     atom   35 type  1   force =     0.01970520   -0.02049570    0.01961523
     atom   36 type  1   force =    -0.04904138   -0.01458393   -0.02276506
     atom   37 type  2   force =    -0.00626767    0.00029362   -0.03385769
     atom   38 type  1   force =     0.02894350   -0.03145991    0.00917119
     atom   39 type  1   force =    -0.01695850    0.03628700    0.01681649
     atom   40 type  2   force =     0.02770918    0.01454591    0.01024252
     atom   41 type  1   force =    -0.01068375   -0.02417324   -0.01068569
     atom   42 type  1   force =    -0.04250330    0.02428066    0.01238558
     atom   43 type  2   force =     0.04610215   -0.01014597   -0.01744035
     atom   44 type  1   force =    -0.05112565    0.00843725    0.02488942
     atom   45 type  1   force =     0.00103631   -0.00102037   -0.00258244
     atom   46 type  2   force =    -0.04424192    0.01966179   -0.02402514
     atom   47 type  1   force =    -0.00031756    0.01062527   -0.01067554
     atom   48 type  1   force =     0.04136545   -0.02653268    0.02458658
     atom   49 type  2   force =     0.00291515    0.01833698   -0.00150116
     atom   50 type  1   force =     0.01735279    0.01048859   -0.04109326
     atom   51 type  1   force =    -0.02300765   -0.03109834    0.04047784
     atom   52 type  2   force =    -0.00013301   -0.02439034    0.03570152
     atom   53 type  1   force =     0.00559933   -0.00407518    0.01154128
     atom   54 type  1   force =    -0.01056856    0.00491839   -0.04977551
     atom   55 type  2   force =    -0.00004331    0.03357582   -0.00193124
     atom   56 type  1   force =     0.00980600   -0.04889658    0.00254997
     atom   57 type  1   force =     0.01253886    0.00901387    0.01265680
     atom   58 type  2   force =    -0.00213107    0.03990239   -0.01159019
     atom   59 type  1   force =    -0.01285768    0.02246823   -0.00753127
     atom   60 type  1   force =     0.00296794   -0.04563146    0.02876088
     atom   61 type  2   force =    -0.04330585   -0.00609732    0.00852607
     atom   62 type  1   force =     0.05080940    0.02742799    0.00080183
     atom   63 type  1   force =    -0.01747547   -0.03514474   -0.01095278
     atom   64 type  2   force =    -0.00726268    0.01529036   -0.02969519
     atom   65 type  1   force =     0.02347218   -0.01730942    0.04839941
     atom   66 type  1   force =    -0.00712350    0.01102261   -0.02146219
     atom   67 type  2   force =     0.04685929   -0.01548749   -0.01046547
     atom   68 type  1   force =    -0.01544482   -0.03643661    0.03950855
     atom   69 type  1   force =    -0.01871111    0.03814842   -0.03638981
     atom   70 type  2   force =     0.00530131    0.03658665   -0.01304379
     atom   71 type  1   force =    -0.04474235   -0.00240438   -0.01185851
     atom   72 type  1   force =     0.04620586   -0.02766340    0.02248221
     atom   73 type  2   force =     0.03254252   -0.02155378   -0.03087343
     atom   74 type  1   force =     0.03934815    0.02807010    0.02816090
     atom   75 type  1   force =    -0.05945121   -0.00869576   -0.00178418
     atom   76 type  2   force =    -0.00080091    0.01918518    0.02280014
     atom   77 type  1   force =    -0.02506195   -0.04249691   -0.01817599
     atom   78 type  1   force =     0.01702464    0.02146113   -0.00736637
     atom   79 type  2   force =     0.03807072   -0.01410976   -0.00192216
     atom   80 type  1   force =     0.01289472   -0.02502106    0.00039707
     atom   81 type  1   force =    -0.05278540    0.03302113    0.00030980
     atom   82 type  2   force =    -0.01150862   -0.01935829   -0.00540525
     atom   83 type  1   force =    -0.04743167    0.00993043    0.00736364
     atom   84 type  1   force =     0.04714203    0.00758676   -0.00564120
     atom   85 type  2   force =    -0.00347455    0.00632963   -0.02789326
     atom   86 type  1   force =    -0.02257253   -0.02897277    0.03755908
     atom   87 type  1   force =     0.03049823    0.03732636   -0.00827114
     atom   88 type  2   force =     0.00204058   -0.01940845    0.01879634
     atom   89 type  1   force =     0.02874371   -0.01687284    0.02570339
     atom   90 type  1   force =    -0.02005928    0.01896820   -0.04725709
     atom   91 type  2   force =    -0.01088772   -0.00010943    0.01241564
     atom   92 type  1   force =     0.01468414   -0.04043998   -0.01111014
     atom   93 type  1   force =    -0.02296183    0.05911783   -0.00194220
     atom   94 type  2   force =     0.00611039    0.01371480    0.05046134
     atom   95 type  1   force =     0.01437580    0.01154260   -0.05317788
     atom   96 type  1   force =    -0.00197967   -0.00911839    0.02849201
     The non-local contrib.  to forces
     atom    1 type  2   force =    -0.52399051   -1.21013292   -1.36108186
     atom    2 type  1   force =    -0.02618345   -0.00513517    0.09402099
     atom    3 type  1   force =     0.06805171    0.06695018   -0.01727768
     atom    4 type  2   force =     1.96653763   -0.07534465    0.38833170
     atom    5 type  1   force =    -0.03394174    0.05959226   -0.06970596
     atom    6 type  1   force =    -0.06905399   -0.05503189    0.04226392
     atom    7 type  2   force =     0.18558942    1.02618695    1.80470676
     atom    8 type  1   force =    -0.08429028   -0.01206410   -0.04674918
     atom    9 type  1   force =     0.07428184   -0.04192541   -0.04276545
     atom   10 type  2   force =    -1.87919119   -0.28941741    0.01128288
     atom   11 type  1   force =     0.04500231    0.08548187    0.01719812
     atom   12 type  1   force =     0.06195359   -0.07361796   -0.01835373
     atom   13 type  2   force =     0.92184280    1.66214559   -0.40201764
     atom   14 type  1   force =    -0.09667037   -0.00934268   -0.01646592
     atom   15 type  1   force =     0.03987129   -0.07920280    0.04278962
     atom   16 type  2   force =    -1.17872547   -0.55454503   -1.44547920
     atom   17 type  1   force =     0.00654515   -0.04737345    0.08490697
     atom   18 type  1   force =     0.06050506    0.07382593   -0.00709705
     atom   19 type  2   force =    -1.26996669    0.80272307   -1.01729782
     atom   20 type  1   force =     0.08831868   -0.03502350   -0.02722318
     atom   21 type  1   force =    -0.01467229   -0.00516137    0.09518337
     atom   22 type  2   force =     0.82306093    0.16846225    1.63326744
     atom   23 type  1   force =     0.03617629   -0.02142984   -0.08847505
     atom   24 type  1   force =    -0.09217753    0.02522574   -0.00234621
     atom   25 type  2   force =    -0.83998999    0.59686081   -1.89289380
     atom   26 type  1   force =     0.09661369    0.00292718    0.01806927
     atom   27 type  1   force =    -0.05454227   -0.03061775    0.07649310
     atom   28 type  2   force =    -0.13853018    0.80264307    1.97950904
     atom   29 type  1   force =    -0.06953923    0.00570562   -0.06847563
     atom   30 type  1   force =     0.08235692   -0.04625257   -0.03027383
     atom   31 type  2   force =    -0.84012184    1.53800562   -0.57548398
     atom   32 type  1   force =    -0.01566091   -0.08200734   -0.04625455
     atom   33 type  1   force =     0.06102741   -0.00880105    0.07491345
     atom   34 type  2   force =     0.53541452    2.02563692    0.28433420
     atom   35 type  1   force =     0.06223991   -0.06954145    0.02836510
     atom   36 type  1   force =    -0.08254619   -0.03400005   -0.03969712
     atom   37 type  2   force =    -1.08715349   -1.15865515   -1.04546272
     atom   38 type  1   force =     0.08581374   -0.02483142    0.03840099
     atom   39 type  1   force =    -0.02561068    0.09181171    0.01793199
     atom   40 type  2   force =     0.54421389    0.32128550   -1.69245246
     atom   41 type  1   force =     0.03325644   -0.07428148    0.05127259
     atom   42 type  1   force =    -0.04523240    0.06656990    0.05526256
     atom   43 type  2   force =     1.68724172    0.01102220    1.02122585
     atom   44 type  1   force =    -0.09138473    0.01804931    0.02891748
     atom   45 type  1   force =     0.00566947   -0.03155138   -0.09037323
     atom   46 type  2   force =    -1.79547003   -0.34257301    0.72290409
     atom   47 type  1   force =     0.00408441    0.05469773   -0.07833102
     atom   48 type  1   force =     0.08828470   -0.02537814    0.03426525
     atom   49 type  2   force =     0.30771529    1.95690338    0.87318871
     atom   50 type  1   force =     0.01361393   -0.01632113   -0.09520540
     atom   51 type  1   force =    -0.02994290   -0.07843569    0.04993721
     atom   52 type  2   force =     0.35595169   -1.80150294    0.64545575
     atom   53 type  1   force =    -0.00770053    0.07283815    0.06605647
     atom   54 type  1   force =    -0.01883243    0.02921760   -0.09257904
     atom   55 type  2   force =    -0.91063708    0.88394126   -1.42730884
     atom   56 type  1   force =     0.01343892   -0.09571993    0.01215188
     atom   57 type  1   force =     0.03431337    0.05292366    0.07222880
     atom   58 type  2   force =    -1.42467953    1.07159694    0.62296620
     atom   59 type  1   force =     0.06528942    0.04188678   -0.06159391
     atom   60 type  1   force =     0.01934098   -0.09541991    0.01740927
     atom   61 type  2   force =    -1.42889548    0.77907385    1.35709460
     atom   62 type  1   force =     0.09193860    0.02937193   -0.01286465
     atom   63 type  1   force =    -0.02875598   -0.06720798   -0.06306215
     atom   64 type  2   force =     0.88987778    1.28554591   -1.05988939
     atom   65 type  1   force =     0.03314367   -0.04591049    0.08036863
     atom   66 type  1   force =    -0.08663743   -0.03329410   -0.02973890
     atom   67 type  2   force =     2.19989079   -0.09186729   -0.48221978
     atom   68 type  1   force =    -0.03822581   -0.05498209    0.07174154
     atom   69 type  1   force =    -0.06466523    0.05841399   -0.04523182
     atom   70 type  2   force =     0.49974880    2.07147497   -0.81553534
     atom   71 type  1   force =    -0.09098403   -0.03697059   -0.00422029
     atom   72 type  1   force =     0.06641109   -0.05949332    0.03914030
     atom   73 type  2   force =     0.78699590   -0.70224154   -1.94679773
     atom   74 type  1   force =     0.06161557    0.03534328    0.06836785
     atom   75 type  1   force =    -0.09346040   -0.00147955    0.02706609
     atom   76 type  2   force =    -0.78092806    0.81937162    1.48744375
     atom   77 type  1   force =    -0.03327793   -0.08047079   -0.04488926
     atom   78 type  1   force =     0.07923066    0.03880319   -0.04373325
     atom   79 type  2   force =     1.79341768    1.19991584    0.44038046
     atom   80 type  1   force =     0.01358907   -0.09309079   -0.02494793
     atom   81 type  1   force =    -0.09199349    0.02751101    0.00267225
     atom   82 type  2   force =    -0.60044656    0.25879374   -1.99698234
     atom   83 type  1   force =    -0.06478536   -0.01480443    0.07205148
     atom   84 type  1   force =     0.09277945   -0.00622467    0.02961062
     atom   85 type  2   force =    -0.03249584   -1.12059585   -1.87320404
     atom   86 type  1   force =    -0.04528965   -0.02609338    0.08194655
     atom   87 type  1   force =     0.04580991    0.08706735    0.00464879
     atom   88 type  2   force =    -1.46971922   -0.87343159    1.36241918
     atom   89 type  1   force =     0.09399031    0.00341014    0.02410071
     atom   90 type  1   force =    -0.01961640    0.02919703   -0.09087921
     atom   91 type  2   force =     1.35052928    0.40832161   -1.34598484
     atom   92 type  1   force =    -0.02108784   -0.09100012    0.02895341
     atom   93 type  1   force =    -0.05360867    0.06795087    0.04649004
     atom   94 type  2   force =    -1.75988056    0.11899357    0.70198826
     atom   95 type  1   force =     0.03007117    0.01728959   -0.09158127
     atom   96 type  1   force =     0.07201278   -0.01794694    0.06097849
     The ionic contribution  to forces
     atom    1 type  2   force =    -7.72693852   11.22548030    3.96051716
     atom    2 type  1   force =    -0.56900985    1.25043775   -2.78160013
     atom    3 type  1   force =    -3.31679864   -0.37215559    0.59470751
     atom    4 type  2   force =     0.36327459    7.17222489   -6.59669840
     atom    5 type  1   force =     1.45815748   -0.54519203    1.07318706
     atom    6 type  1   force =     3.18422789    2.63084694   -2.52082433
     atom    7 type  2   force =     1.61711279   -0.17929240  -14.00468946
     atom    8 type  1   force =     2.87453354    0.84026126   -0.51654301
     atom    9 type  1   force =    -1.70976769    1.72630393   -0.59874404
     atom   10 type  2   force =     1.68637684    1.64955068    1.15834426
     atom   11 type  1   force =    -1.47354808   -2.41851501   -0.24355601
     atom   12 type  1   force =    -2.45438849    2.41617166    1.13148851
     atom   13 type  2   force =    -5.53217384   -7.25714929   -6.34191261
     atom   14 type  1   force =     2.51621559   -0.28561400   -0.41537381
     atom   15 type  1   force =    -2.09757215    1.58732438   -2.68903916
     atom   16 type  2   force =     1.79452624    2.68025823   12.50106108
     atom   17 type  1   force =     0.07643288    1.77506614   -0.94341338
     atom   18 type  1   force =    -1.59212216   -2.00475129    1.84004329
     atom   19 type  2   force =    -2.43411402   -4.77365756    1.56222930
     atom   20 type  1   force =    -3.56338734    0.66503614    0.81483269
     atom   21 type  1   force =    -0.40574100   -0.44035419   -2.95176701
     atom   22 type  2   force =    -7.38875252   -0.70825391    8.15194947
     atom   23 type  1   force =    -2.08138932    0.72181685    4.52305361
     atom   24 type  1   force =     1.57071522   -0.81951047    1.68348150
     atom   25 type  2   force =    -4.95901347    3.32735036   -4.49844649
     atom   26 type  1   force =    -4.19241603    0.52110470   -1.49166558
     atom   27 type  1   force =     1.12811140    1.83865394   -3.53478398
     atom   28 type  2   force =     6.14248257  -11.15835050   -2.40253290
     atom   29 type  1   force =     3.24782396   -1.54727742    2.87299481
     atom   30 type  1   force =    -1.72444153   -0.43970486    1.25766337
     atom   31 type  2   force =    -1.96271850    2.12530278   -5.25840500
     atom   32 type  1   force =     0.04065526    3.02454703    0.24221488
     atom   33 type  1   force =    -2.27200281    0.99862232   -3.27987358
     atom   34 type  2   force =     8.50271463    4.40028937    1.97336037
     atom   35 type  1   force =     0.00306521    3.61861816   -0.50635775
     atom   36 type  1   force =     3.91116435    2.37622909    1.88927224
     atom   37 type  2   force =     9.69137125   -1.51542811   -1.10004671
     atom   38 type  1   force =    -1.45648695    0.30210716   -1.26470279
     atom   39 type  1   force =     2.15622121   -3.53670468   -1.35863261
     atom   40 type  2   force =    -3.45922888  -10.80263941    7.99319682
     atom   41 type  1   force =    -1.24593168    0.49332448   -1.10563569
     atom   42 type  1   force =     1.31818212   -3.28360472   -0.79917667
     atom   43 type  2   force =     5.75873475    5.76988766  -10.41221664
     atom   44 type  1   force =     4.52279515    0.21010054   -2.25203683
     atom   45 type  1   force =     1.34206515    1.88020797    1.12901532
     atom   46 type  2   force =    -5.06590349    6.63872466    2.37698837
     atom   47 type  1   force =    -1.35600727   -0.37681513    3.17763504
     atom   48 type  1   force =    -4.11426059    1.87412164   -0.73750722
     atom   49 type  2   force =    -5.88711111  -11.16458609   -6.70632185
     atom   50 type  1   force =    -1.36655233   -0.75384356    2.21275985
     atom   51 type  1   force =    -0.09656670    1.22869477   -2.64921226
     atom   52 type  2   force =    -3.01784726   -3.07264063    9.83299810
     atom   53 type  1   force =    -0.24536317   -3.51695331   -0.09163257
     atom   54 type  1   force =     0.29963563   -2.07414193    4.70888397
     atom   55 type  2   force =     9.88656313   -1.02681469    5.69492363
     atom   56 type  1   force =     0.84807037    3.04492123   -0.08787428
     atom   57 type  1   force =     0.31464672   -1.30145918   -1.59607828
     atom   58 type  2   force =     7.25332857    8.24059780    2.28002999
     atom   59 type  1   force =    -1.20751578    0.32541365    3.02227388
     atom   60 type  1   force =     0.19771923    4.59209136    0.17436779
     atom   61 type  2   force =    -3.94268645   -8.36417624    1.98981393
     atom   62 type  1   force =    -3.65616282   -2.05644657    1.23803583
     atom   63 type  1   force =    -0.65112286    1.08783331    2.57595891
     atom   64 type  2   force =    -6.04310838    6.78954834   -4.95919961
     atom   65 type  1   force =    -1.83782745    2.92129548   -3.89591866
     atom   66 type  1   force =     2.02442325    2.07089690   -0.32518080
     atom   67 type  2   force =     3.37048881   -6.04222838   -8.04282266
     atom   68 type  1   force =     2.36583554    1.21421336   -3.60601251
     atom   69 type  1   force =     3.29611346   -3.06655209    0.27837914
     atom   70 type  2   force =    -8.66794512   -0.80162780   -4.40301204
     atom   71 type  1   force =     1.40199301    1.69167225   -0.59329786
     atom   72 type  1   force =    -3.34926889    2.60095335   -2.18311749
     atom   73 type  2   force =    -3.11303929   -5.17965906    1.38820671
     atom   74 type  1   force =    -2.69244410   -1.92745505   -2.73407057
     atom   75 type  1   force =     3.34975825   -0.80572736   -1.35616505
     atom   76 type  2   force =     6.17416581    3.06388207   -5.03299514
     atom   77 type  1   force =     2.05264882    3.03792240    0.76766601
     atom   78 type  1   force =    -1.69319463   -0.74401259    1.04954039
     atom   79 type  2   force =    -5.13097935   -9.78759256   -9.01755154
     atom   80 type  1   force =    -0.84601875    1.27750844   -0.92432858
     atom   81 type  1   force =     3.20494378   -2.12727324   -1.41458321
     atom   82 type  2   force =     6.75644521   -5.48916075   12.90214064
     atom   83 type  1   force =     3.20189621   -0.41378689   -0.57436979
     atom   84 type  1   force =    -2.09032393   -0.66163717    0.69075775
     atom   85 type  2   force =     3.90536897    8.56919999   12.67670446
     atom   86 type  1   force =     2.15667183    1.84913594   -0.95661662
     atom   87 type  1   force =    -0.86101784   -1.73627903    1.53568058
     atom   88 type  2   force =     5.52740632   -6.25085384    3.48870161
     atom   89 type  1   force =    -2.20728345   -1.11492242    0.00140970
     atom   90 type  1   force =     1.13904224   -2.55790007    4.33585051
     atom   91 type  2   force =    -0.39433873   -6.47944484   -1.98823946
     atom   92 type  1   force =     1.04066533    2.26597584   -1.68805169
     atom   93 type  1   force =     1.92938186   -3.50523867   -2.17313637
     atom   94 type  2   force =     0.63982518    9.43661908    8.50152329
     atom   95 type  1   force =    -1.60631497    0.91353644    4.83242386
     atom   96 type  1   force =    -2.48584944    2.52550156   -0.48029651
     The local contribution  to forces
     atom    1 type  2   force =     8.23468282  -10.03679318   -2.65191699
     atom    2 type  1   force =     0.57101783   -1.24044059    2.71843628
     atom    3 type  1   force =     3.27080808    0.31626139   -0.57176425
     atom    4 type  2   force =    -2.28333711   -7.08273647    6.20830701
     atom    5 type  1   force =    -1.41943112    0.50350332   -1.03145175
     atom    6 type  1   force =    -3.15010361   -2.61659035    2.50145153
     atom    7 type  2   force =    -1.79287223   -0.83579765   12.22651344
     atom    8 type  1   force =    -2.83282905   -0.81393710    0.54497437
     atom    9 type  1   force =     1.67932184   -1.69062246    0.63808548
     atom   10 type  2   force =     0.15716725   -1.37958479   -1.17832518
     atom   11 type  1   force =     1.42973488    2.36342655    0.22520893
     atom   12 type  1   force =     2.41603228   -2.37614521   -1.12856380
     atom   13 type  2   force =     4.60726522    5.62634278    6.74558213
     atom   14 type  1   force =    -2.43922217    0.29724159    0.41610538
     atom   15 type  1   force =     2.09818530   -1.53630355    2.66842727
     atom   16 type  2   force =    -0.62222207   -2.12859809  -11.06523185
     atom   17 type  1   force =    -0.09563245   -1.76239929    0.88305632
     atom   18 type  1   force =     1.55071870    1.96765939   -1.85303628
     atom   19 type  2   force =     3.66967633    4.01487878   -0.54108963
     atom   20 type  1   force =     3.51289501   -0.65075042   -0.80956170
     atom   21 type  1   force =     0.41518349    0.43616246    2.86036423
     atom   22 type  2   force =     6.54698049    0.57318457   -9.72267656
     atom   23 type  1   force =     2.07105684   -0.71645696   -4.48259619
     atom   24 type  1   force =    -1.47980059    0.78637371   -1.66603084
     atom   25 type  2   force =     5.77348935   -3.90294374    6.32678588
     atom   26 type  1   force =     4.15209054   -0.52044094    1.47524861
     atom   27 type  1   force =    -1.11272131   -1.82402089    3.49064985
     atom   28 type  2   force =    -5.99576412   10.35174750    0.46327589
     atom   29 type  1   force =    -3.22736595    1.55235121   -2.83563036
     atom   30 type  1   force =     1.67383784    0.47979789   -1.20909339
     atom   31 type  2   force =     2.76524834   -3.65376610    5.81683514
     atom   32 type  1   force =    -0.02995661   -2.94965349   -0.21343990
     atom   33 type  1   force =     2.22205237   -0.97867097    3.23479006
     atom   34 type  2   force =    -9.00053302   -6.37159392   -2.24328810
     atom   35 type  1   force =    -0.04560009   -3.56957248    0.49760793
     atom   36 type  1   force =    -3.87765962   -2.35681302   -1.87234013
     atom   37 type  2   force =    -8.62114189    2.66282266    2.10097480
     atom   38 type  1   force =     1.39961674   -0.30873575    1.23547307
     atom   39 type  1   force =    -2.14756908    3.48117995    1.35751720
     atom   40 type  2   force =     2.94859207   10.49885762   -6.30680322
     atom   41 type  1   force =     1.20199149   -0.44321656    1.04367770
     atom   42 type  1   force =    -1.31545327    3.24131555    0.75629993
     atom   43 type  2   force =    -7.38242659   -5.79126302    9.38316959
     atom   44 type  1   force =    -4.48253600   -0.21971267    2.24800882
     atom   45 type  1   force =    -1.34669833   -1.84967699   -1.04122438
     atom   46 type  2   force =     6.79879183   -6.27953559   -3.11705229
     atom   47 type  1   force =     1.35160534    0.33274241   -3.10997943
     atom   48 type  1   force =     4.06734134   -1.87527630    0.72782863
     atom   49 type  2   force =     5.58542838    9.24596353    5.84034387
     atom   50 type  1   force =     1.37029119    0.78065327   -2.15864745
     atom   51 type  1   force =     0.10350196   -1.18135740    2.63975299
     atom   52 type  2   force =     2.66519053    4.83158524  -10.43572809
     atom   53 type  1   force =     0.25866295    3.44003999    0.03711740
     atom   54 type  1   force =    -0.29137185    2.04984271   -4.66608059
     atom   55 type  2   force =    -8.98488315    0.18568470   -4.28340208
     atom   56 type  1   force =    -0.85170332   -2.99809801    0.07827246
     atom   57 type  1   force =    -0.33642123    1.25754933    1.53650637
     atom   58 type  2   force =    -5.84477129   -9.26107123   -2.90849003
     atom   59 type  1   force =     1.12936884   -0.34483224   -2.96821135
     atom   60 type  1   force =    -0.21409223   -4.54230326   -0.16301605
     atom   61 type  2   force =     5.31330658    7.58675204   -3.32484380
     atom   62 type  1   force =     3.61503387    2.05450263   -1.22436935
     atom   63 type  1   force =     0.66240348   -1.05577023   -2.52384958
     atom   64 type  2   force =     5.15443076   -8.04677242    5.97834498
     atom   65 type  1   force =     1.82815596   -2.89269463    3.86394973
     atom   66 type  1   force =    -1.94490956   -2.02658039    0.33345760
     atom   67 type  2   force =    -5.50065278    6.11765573    8.50941165
     atom   68 type  1   force =    -2.34305457   -1.19566794    3.57377957
     atom   69 type  1   force =    -3.25015936    3.04628643   -0.26953706
     atom   70 type  2   force =     8.17851021   -1.21174422    5.19697570
     atom   71 type  1   force =    -1.35575137   -1.65710612    0.58565973
     atom   72 type  1   force =     3.32906365   -2.56912354    2.16645949
     atom   73 type  2   force =     2.36674568    5.85293405    0.50749345
     atom   74 type  1   force =     2.67017672    1.92018191    2.69386393
     atom   75 type  1   force =    -3.31574937    0.79851111    1.32731498
     atom   76 type  2   force =    -5.40175499   -3.85575437    3.58331329
     atom   77 type  1   force =    -2.04443287   -2.99994844   -0.74095256
     atom   78 type  1   force =     1.63098844    0.72667046   -1.01317335
     atom   79 type  2   force =     3.39431763    8.58538864    8.57964759
     atom   80 type  1   force =     0.84532433   -1.20943873    0.94967370
     atom   81 type  1   force =    -3.16573577    2.13278332    1.41222084
     atom   82 type  2   force =    -6.17369145    5.21328491  -10.93070765
     atom   83 type  1   force =    -3.18454261    0.43852167    0.50968213
     atom   84 type  1   force =     2.04468659    0.67544849   -0.72600941
     atom   85 type  2   force =    -3.87670933   -7.45350037  -10.85064137
     atom   86 type  1   force =    -2.13395476   -1.85201539    0.91222922
     atom   87 type  1   force =     0.84570617    1.68653801   -1.54860041
     atom   88 type  2   force =    -4.07038666    7.09575541   -4.81827041
     atom   89 type  1   force =     2.14203644    1.09463930    0.00019305
     atom   90 type  1   force =    -1.13948519    2.54767108   -4.29222810
     atom   91 type  2   force =    -0.95377501    6.07487119    3.33318303
     atom   92 type  1   force =    -1.00489345   -2.21541591    1.64798829
     atom   93 type  1   force =    -1.89873515    3.49640559    2.12470429
     atom   94 type  2   force =     1.10892366   -9.54044146   -9.14523625
     atom   95 type  1   force =     1.59061955   -0.91928351   -4.79402047
     atom   96 type  1   force =     2.41185695   -2.51667312    0.44781007
     The core correction contribution to forces
     atom    1 type  2   force =     0.00522943    0.01196075    0.01364987
     atom    2 type  1   force =     0.00000000    0.00000000    0.00000000
     atom    3 type  1   force =     0.00000000    0.00000000    0.00000000
     atom    4 type  2   force =    -0.02004832    0.00044206   -0.00346049
     atom    5 type  1   force =     0.00000000    0.00000000    0.00000000
     atom    6 type  1   force =     0.00000000    0.00000000    0.00000000
     atom    7 type  2   force =    -0.00203563   -0.01020751   -0.01798000
     atom    8 type  1   force =     0.00000000    0.00000000    0.00000000
     atom    9 type  1   force =     0.00000000    0.00000000    0.00000000
     atom   10 type  2   force =     0.01869273    0.00306299    0.00014423
     atom   11 type  1   force =     0.00000000    0.00000000    0.00000000
     atom   12 type  1   force =     0.00000000    0.00000000    0.00000000
     atom   13 type  2   force =    -0.00893594   -0.01672584    0.00406156
     atom   14 type  1   force =     0.00000000    0.00000000    0.00000000
     atom   15 type  1   force =     0.00000000    0.00000000    0.00000000
     atom   16 type  2   force =     0.01152997    0.00546757    0.01430637
     atom   17 type  1   force =     0.00000000    0.00000000    0.00000000
     atom   18 type  1   force =     0.00000000    0.00000000    0.00000000
     atom   19 type  2   force =     0.01295286   -0.00825495    0.00964973
     atom   20 type  1   force =     0.00000000    0.00000000    0.00000000
     atom   21 type  1   force =     0.00000000    0.00000000    0.00000000
     atom   22 type  2   force =    -0.00762224   -0.00209234   -0.01680331
     atom   23 type  1   force =     0.00000000    0.00000000    0.00000000
     atom   24 type  1   force =     0.00000000    0.00000000    0.00000000
     atom   25 type  2   force =     0.00887222   -0.00617615    0.01960018
     atom   26 type  1   force =     0.00000000    0.00000000    0.00000000
     atom   27 type  1   force =     0.00000000    0.00000000    0.00000000
     atom   28 type  2   force =     0.00106762   -0.00782246   -0.02031288
     atom   29 type  1   force =     0.00000000    0.00000000    0.00000000
     atom   30 type  1   force =     0.00000000    0.00000000    0.00000000
     atom   31 type  2   force =     0.00845530   -0.01501250    0.00555554
     atom   32 type  1   force =     0.00000000    0.00000000    0.00000000
     atom   33 type  1   force =     0.00000000    0.00000000    0.00000000
     atom   34 type  2   force =    -0.00602524   -0.02050925   -0.00305569
     atom   35 type  1   force =     0.00000000    0.00000000    0.00000000
     atom   36 type  1   force =     0.00000000    0.00000000    0.00000000
     atom   37 type  2   force =     0.01065676    0.01155413    0.01067692
     atom   38 type  1   force =     0.00000000    0.00000000    0.00000000
     atom   39 type  1   force =     0.00000000    0.00000000    0.00000000
     atom   40 type  2   force =    -0.00586810   -0.00295811    0.01630210
     atom   41 type  1   force =     0.00000000    0.00000000    0.00000000
     atom   42 type  1   force =     0.00000000    0.00000000    0.00000000
     atom   43 type  2   force =    -0.01744734    0.00020730   -0.00961909
     atom   44 type  1   force =     0.00000000    0.00000000    0.00000000
     atom   45 type  1   force =     0.00000000    0.00000000    0.00000000
     atom   46 type  2   force =     0.01834044    0.00304505   -0.00686498
     atom   47 type  1   force =     0.00000000    0.00000000    0.00000000
     atom   48 type  1   force =     0.00000000    0.00000000    0.00000000
     atom   49 type  2   force =    -0.00311725   -0.01994362   -0.00871138
     atom   50 type  1   force =     0.00000000    0.00000000    0.00000000
     atom   51 type  1   force =     0.00000000    0.00000000    0.00000000
     atom   52 type  2   force =    -0.00342815    0.01816825   -0.00702480
     atom   53 type  1   force =     0.00000000    0.00000000    0.00000000
     atom   54 type  1   force =     0.00000000    0.00000000    0.00000000
     atom   55 type  2   force =     0.00891394   -0.00923550    0.01385628
     atom   56 type  1   force =     0.00000000    0.00000000    0.00000000
     atom   57 type  1   force =     0.00000000    0.00000000    0.00000000
     atom   58 type  2   force =     0.01399188   -0.01122218   -0.00609626
     atom   59 type  1   force =     0.00000000    0.00000000    0.00000000
     atom   60 type  1   force =     0.00000000    0.00000000    0.00000000
     atom   61 type  2   force =     0.01497077   -0.00774688   -0.01353918
     atom   62 type  1   force =     0.00000000    0.00000000    0.00000000
     atom   63 type  1   force =     0.00000000    0.00000000    0.00000000
     atom   64 type  2   force =    -0.00846309   -0.01303244    0.01104984
     atom   65 type  1   force =     0.00000000    0.00000000    0.00000000
     atom   66 type  1   force =     0.00000000    0.00000000    0.00000000
     atom   67 type  2   force =    -0.02286750    0.00095217    0.00516542
     atom   68 type  1   force =     0.00000000    0.00000000    0.00000000
     atom   69 type  1   force =     0.00000000    0.00000000    0.00000000
     atom   70 type  2   force =    -0.00501256   -0.02151649    0.00852812
     atom   71 type  1   force =     0.00000000    0.00000000    0.00000000
     atom   72 type  1   force =     0.00000000    0.00000000    0.00000000
     atom   73 type  2   force =    -0.00816054    0.00741287    0.02022485
     atom   74 type  1   force =     0.00000000    0.00000000    0.00000000
     atom   75 type  1   force =     0.00000000    0.00000000    0.00000000
     atom   76 type  2   force =     0.00771635   -0.00831375   -0.01496144
     atom   77 type  1   force =     0.00000000    0.00000000    0.00000000
     atom   78 type  1   force =     0.00000000    0.00000000    0.00000000
     atom   79 type  2   force =    -0.01868547   -0.01182154   -0.00439850
     atom   80 type  1   force =     0.00000000    0.00000000    0.00000000
     atom   81 type  1   force =     0.00000000    0.00000000    0.00000000
     atom   82 type  2   force =     0.00618437   -0.00227643    0.02014465
     atom   83 type  1   force =     0.00000000    0.00000000    0.00000000
     atom   84 type  1   force =     0.00000000    0.00000000    0.00000000
     atom   85 type  2   force =     0.00036161    0.01122586    0.01924798
     atom   86 type  1   force =     0.00000000    0.00000000    0.00000000
     atom   87 type  1   force =     0.00000000    0.00000000    0.00000000
     atom   88 type  2   force =     0.01473964    0.00912122   -0.01405342
     atom   89 type  1   force =     0.00000000    0.00000000    0.00000000
     atom   90 type  1   force =     0.00000000    0.00000000    0.00000000
     atom   91 type  2   force =    -0.01330372   -0.00385780    0.01345739
     atom   92 type  1   force =     0.00000000    0.00000000    0.00000000
     atom   93 type  1   force =     0.00000000    0.00000000    0.00000000
     atom   94 type  2   force =     0.01724209   -0.00145658   -0.00781437
     atom   95 type  1   force =     0.00000000    0.00000000    0.00000000
     atom   96 type  1   force =     0.00000000    0.00000000    0.00000000
     The Hubbard contrib.    to forces
     atom    1 type  2   force =     0.00000000    0.00000000    0.00000000
     atom    2 type  1   force =     0.00000000    0.00000000    0.00000000
     atom    3 type  1   force =     0.00000000    0.00000000    0.00000000
     atom    4 type  2   force =     0.00000000    0.00000000    0.00000000
     atom    5 type  1   force =     0.00000000    0.00000000    0.00000000
     atom    6 type  1   force =     0.00000000    0.00000000    0.00000000
     atom    7 type  2   force =     0.00000000    0.00000000    0.00000000
     atom    8 type  1   force =     0.00000000    0.00000000    0.00000000
     atom    9 type  1   force =     0.00000000    0.00000000    0.00000000
     atom   10 type  2   force =     0.00000000    0.00000000    0.00000000
     atom   11 type  1   force =     0.00000000    0.00000000    0.00000000
     atom   12 type  1   force =     0.00000000    0.00000000    0.00000000
     atom   13 type  2   force =     0.00000000    0.00000000    0.00000000
     atom   14 type  1   force =     0.00000000    0.00000000    0.00000000
     atom   15 type  1   force =     0.00000000    0.00000000    0.00000000
     atom   16 type  2   force =     0.00000000    0.00000000    0.00000000
     atom   17 type  1   force =     0.00000000    0.00000000    0.00000000
     atom   18 type  1   force =     0.00000000    0.00000000    0.00000000
     atom   19 type  2   force =     0.00000000    0.00000000    0.00000000
     atom   20 type  1   force =     0.00000000    0.00000000    0.00000000
     atom   21 type  1   force =     0.00000000    0.00000000    0.00000000
     atom   22 type  2   force =     0.00000000    0.00000000    0.00000000
     atom   23 type  1   force =     0.00000000    0.00000000    0.00000000
     atom   24 type  1   force =     0.00000000    0.00000000    0.00000000
     atom   25 type  2   force =     0.00000000    0.00000000    0.00000000
     atom   26 type  1   force =     0.00000000    0.00000000    0.00000000
     atom   27 type  1   force =     0.00000000    0.00000000    0.00000000
     atom   28 type  2   force =     0.00000000    0.00000000    0.00000000
     atom   29 type  1   force =     0.00000000    0.00000000    0.00000000
     atom   30 type  1   force =     0.00000000    0.00000000    0.00000000
     atom   31 type  2   force =     0.00000000    0.00000000    0.00000000
     atom   32 type  1   force =     0.00000000    0.00000000    0.00000000
     atom   33 type  1   force =     0.00000000    0.00000000    0.00000000
     atom   34 type  2   force =     0.00000000    0.00000000    0.00000000
     atom   35 type  1   force =     0.00000000    0.00000000    0.00000000
     atom   36 type  1   force =     0.00000000    0.00000000    0.00000000
     atom   37 type  2   force =     0.00000000    0.00000000    0.00000000
     atom   38 type  1   force =     0.00000000    0.00000000    0.00000000
     atom   39 type  1   force =     0.00000000    0.00000000    0.00000000
     atom   40 type  2   force =     0.00000000    0.00000000    0.00000000
     atom   41 type  1   force =     0.00000000    0.00000000    0.00000000
     atom   42 type  1   force =     0.00000000    0.00000000    0.00000000
     atom   43 type  2   force =     0.00000000    0.00000000    0.00000000
     atom   44 type  1   force =     0.00000000    0.00000000    0.00000000
     atom   45 type  1   force =     0.00000000    0.00000000    0.00000000
     atom   46 type  2   force =     0.00000000    0.00000000    0.00000000
     atom   47 type  1   force =     0.00000000    0.00000000    0.00000000
     atom   48 type  1   force =     0.00000000    0.00000000    0.00000000
     atom   49 type  2   force =     0.00000000    0.00000000    0.00000000
     atom   50 type  1   force =     0.00000000    0.00000000    0.00000000
     atom   51 type  1   force =     0.00000000    0.00000000    0.00000000
     atom   52 type  2   force =     0.00000000    0.00000000    0.00000000
     atom   53 type  1   force =     0.00000000    0.00000000    0.00000000
     atom   54 type  1   force =     0.00000000    0.00000000    0.00000000
     atom   55 type  2   force =     0.00000000    0.00000000    0.00000000
     atom   56 type  1   force =     0.00000000    0.00000000    0.00000000
     atom   57 type  1   force =     0.00000000    0.00000000    0.00000000
     atom   58 type  2   force =     0.00000000    0.00000000    0.00000000
     atom   59 type  1   force =     0.00000000    0.00000000    0.00000000
     atom   60 type  1   force =     0.00000000    0.00000000    0.00000000
     atom   61 type  2   force =     0.00000000    0.00000000    0.00000000
     atom   62 type  1   force =     0.00000000    0.00000000    0.00000000
     atom   63 type  1   force =     0.00000000    0.00000000    0.00000000
     atom   64 type  2   force =     0.00000000    0.00000000    0.00000000
     atom   65 type  1   force =     0.00000000    0.00000000    0.00000000
     atom   66 type  1   force =     0.00000000    0.00000000    0.00000000
     atom   67 type  2   force =     0.00000000    0.00000000    0.00000000
     atom   68 type  1   force =     0.00000000    0.00000000    0.00000000
     atom   69 type  1   force =     0.00000000    0.00000000    0.00000000
     atom   70 type  2   force =     0.00000000    0.00000000    0.00000000
     atom   71 type  1   force =     0.00000000    0.00000000    0.00000000
     atom   72 type  1   force =     0.00000000    0.00000000    0.00000000
     atom   73 type  2   force =     0.00000000    0.00000000    0.00000000
     atom   74 type  1   force =     0.00000000    0.00000000    0.00000000
     atom   75 type  1   force =     0.00000000    0.00000000    0.00000000
     atom   76 type  2   force =     0.00000000    0.00000000    0.00000000
     atom   77 type  1   force =     0.00000000    0.00000000    0.00000000
     atom   78 type  1   force =     0.00000000    0.00000000    0.00000000
     atom   79 type  2   force =     0.00000000    0.00000000    0.00000000
     atom   80 type  1   force =     0.00000000    0.00000000    0.00000000
     atom   81 type  1   force =     0.00000000    0.00000000    0.00000000
     atom   82 type  2   force =     0.00000000    0.00000000    0.00000000
     atom   83 type  1   force =     0.00000000    0.00000000    0.00000000
     atom   84 type  1   force =     0.00000000    0.00000000    0.00000000
     atom   85 type  2   force =     0.00000000    0.00000000    0.00000000
     atom   86 type  1   force =     0.00000000    0.00000000    0.00000000
     atom   87 type  1   force =     0.00000000    0.00000000    0.00000000
     atom   88 type  2   force =     0.00000000    0.00000000    0.00000000
     atom   89 type  1   force =     0.00000000    0.00000000    0.00000000
     atom   90 type  1   force =     0.00000000    0.00000000    0.00000000
     atom   91 type  2   force =     0.00000000    0.00000000    0.00000000
     atom   92 type  1   force =     0.00000000    0.00000000    0.00000000
     atom   93 type  1   force =     0.00000000    0.00000000    0.00000000
     atom   94 type  2   force =     0.00000000    0.00000000    0.00000000
     atom   95 type  1   force =     0.00000000    0.00000000    0.00000000
     atom   96 type  1   force =     0.00000000    0.00000000    0.00000000
     The SCF correction term to forces
     atom    1 type  2   force =    -0.00000031   -0.00000003    0.00000016
     atom    2 type  1   force =    -0.00000004   -0.00000001    0.00000003
     atom    3 type  1   force =    -0.00000009   -0.00000002    0.00000002
     atom    4 type  2   force =     0.00000059    0.00000021    0.00000000
     atom    5 type  1   force =     0.00000004    0.00000002   -0.00000001
     atom    6 type  1   force =     0.00000009    0.00000007   -0.00000004
     atom    7 type  2   force =     0.00000021    0.00000022    0.00000042
     atom    8 type  1   force =    -0.00000000    0.00000001    0.00000002
     atom    9 type  1   force =     0.00000010   -0.00000003   -0.00000005
     atom   10 type  2   force =     0.00000003   -0.00000018   -0.00000010
     atom   11 type  1   force =    -0.00000001   -0.00000009   -0.00000004
     atom   12 type  1   force =    -0.00000005    0.00000007    0.00000003
     atom   13 type  2   force =     0.00000036    0.00000044   -0.00000028
     atom   14 type  1   force =     0.00000013    0.00000005   -0.00000002
     atom   15 type  1   force =    -0.00000002    0.00000010   -0.00000009
     atom   16 type  2   force =     0.00000044    0.00000016    0.00000035
     atom   17 type  1   force =     0.00000008   -0.00000005    0.00000018
     atom   18 type  1   force =     0.00000019    0.00000016    0.00000005
     atom   19 type  2   force =     0.00000039   -0.00000014   -0.00000036
     atom   20 type  1   force =     0.00000007    0.00000001   -0.00000008
     atom   21 type  1   force =     0.00000001   -0.00000000    0.00000006
     atom   22 type  2   force =    -0.00000035    0.00000041    0.00000206
     atom   23 type  1   force =    -0.00000014    0.00000011    0.00000044
     atom   24 type  1   force =     0.00000033   -0.00000005    0.00000019
     atom   25 type  2   force =     0.00000014   -0.00000002   -0.00000012
     atom   26 type  1   force =    -0.00000003   -0.00000000   -0.00000003
     atom   27 type  1   force =     0.00000002    0.00000000   -0.00000003
     atom   28 type  2   force =     0.00000000    0.00000021    0.00000046
     atom   29 type  1   force =     0.00000009    0.00000001    0.00000013
     atom   30 type  1   force =    -0.00000014    0.00000010    0.00000010
     atom   31 type  2   force =     0.00000010   -0.00000015   -0.00000060
     atom   32 type  1   force =     0.00000003    0.00000002   -0.00000005
     atom   33 type  1   force =    -0.00000006   -0.00000000   -0.00000014
     atom   34 type  2   force =     0.00000048   -0.00000019    0.00000028
     atom   35 type  1   force =     0.00000012    0.00000000    0.00000003
     atom   36 type  1   force =     0.00000004   -0.00000001    0.00000002
     atom   37 type  2   force =    -0.00000036    0.00000002    0.00000009
     atom   38 type  1   force =    -0.00000007    0.00000004   -0.00000002
     atom   39 type  1   force =     0.00000001   -0.00000006   -0.00000002
     atom   40 type  2   force =     0.00000016    0.00000025   -0.00000065
     atom   41 type  1   force =    -0.00000005    0.00000025   -0.00000022
     atom   42 type  1   force =     0.00000021   -0.00000014   -0.00000017
     atom   43 type  2   force =    -0.00000043   -0.00000018    0.00000001
     atom   44 type  1   force =    -0.00000011    0.00000000    0.00000002
     atom   45 type  1   force =    -0.00000003   -0.00000005   -0.00000008
     atom   46 type  2   force =    -0.00000071    0.00000061   -0.00000026
     atom   47 type  1   force =    -0.00000009    0.00000020   -0.00000006
     atom   48 type  1   force =    -0.00000004    0.00000005   -0.00000001
     atom   49 type  2   force =    -0.00000022   -0.00000030   -0.00000043
     atom   50 type  1   force =    -0.00000005   -0.00000006   -0.00000019
     atom   51 type  1   force =    -0.00000005   -0.00000009   -0.00000002
     atom   52 type  2   force =     0.00000015   -0.00000033    0.00000064
     atom   53 type  1   force =     0.00000004   -0.00000009    0.00000004
     atom   54 type  1   force =     0.00000004   -0.00000007    0.00000022
     atom   55 type  2   force =    -0.00000019   -0.00000003   -0.00000017
     atom   56 type  1   force =    -0.00000001    0.00000006   -0.00000001
     atom   57 type  1   force =    -0.00000005   -0.00000002   -0.00000003
     atom   58 type  2   force =    -0.00000075    0.00000099   -0.00000002
     atom   59 type  1   force =    -0.00000020   -0.00000003    0.00000017
     atom   60 type  1   force =    -0.00000009    0.00000027   -0.00000006
     atom   61 type  2   force =    -0.00000131   -0.00000016    0.00000060
     atom   62 type  1   force =    -0.00000029   -0.00000007    0.00000007
     atom   63 type  1   force =    -0.00000016    0.00000009    0.00000010
     atom   64 type  2   force =     0.00000020    0.00000089   -0.00000095
     atom   65 type  1   force =    -0.00000005    0.00000015   -0.00000022
     atom   66 type  1   force =     0.00000020    0.00000013   -0.00000002
     atom   67 type  2   force =    -0.00000008    0.00000021   -0.00000003
     atom   68 type  1   force =    -0.00000003   -0.00000000    0.00000003
     atom   69 type  1   force =    -0.00000002    0.00000002   -0.00000001
     atom   70 type  2   force =    -0.00000007    0.00000012   -0.00000015
     atom   71 type  1   force =    -0.00000000    0.00000002   -0.00000002
     atom   72 type  1   force =    -0.00000004    0.00000004   -0.00000003
     atom   73 type  2   force =     0.00000072   -0.00000018   -0.00000064
     atom   74 type  1   force =    -0.00000009   -0.00000012   -0.00000024
     atom   75 type  1   force =     0.00000026   -0.00000003   -0.00000013
     atom   76 type  2   force =    -0.00000007   -0.00000045   -0.00000025
     atom   77 type  1   force =    -0.00000002   -0.00000015   -0.00000011
     atom   78 type  1   force =     0.00000012   -0.00000000   -0.00000009
     atom   79 type  2   force =     0.00000019   -0.00000021   -0.00000009
     atom   80 type  1   force =     0.00000003   -0.00000005   -0.00000005
     atom   81 type  1   force =     0.00000004   -0.00000003   -0.00000001
     atom   82 type  2   force =    -0.00000024    0.00000017   -0.00000048
     atom   83 type  1   force =     0.00000004    0.00000001   -0.00000010
     atom   84 type  1   force =    -0.00000013    0.00000003   -0.00000009
     atom   85 type  2   force =    -0.00000000   -0.00000008   -0.00000022
     atom   86 type  1   force =     0.00000001   -0.00000001   -0.00000001
     atom   87 type  1   force =    -0.00000005   -0.00000003   -0.00000003
     atom   88 type  2   force =     0.00000046    0.00000028   -0.00000056
     atom   89 type  1   force =     0.00000037    0.00000008    0.00000001
     atom   90 type  1   force =     0.00000002    0.00000009   -0.00000023
     atom   91 type  2   force =     0.00000042    0.00000034   -0.00000041
     atom   92 type  1   force =     0.00000006    0.00000013   -0.00000007
     atom   93 type  1   force =     0.00000008   -0.00000004   -0.00000008
     atom   94 type  2   force =    -0.00000003    0.00000012    0.00000048
     atom   95 type  1   force =    -0.00000000    0.00000001    0.00000007
     atom   96 type  1   force =    -0.00000001    0.00000003    0.00000004

     Total force =     0.423150     Total SCF correction =     0.000005

     Writing all to output data dir ./006.save/
 
     init_run     :      2.73s CPU      2.26s WALL (       1 calls)
     electrons    :     17.80s CPU     12.44s WALL (       1 calls)
     forces       :      0.88s CPU      0.64s WALL (       1 calls)

     Called by init_run:
     wfcinit      :      0.15s CPU      0.27s WALL (       1 calls)
                                        0.27s GPU  (       1 calls)
     wfcinit:atom :      0.00s CPU      0.00s WALL (       1 calls)
                                        0.00s GPU  (       1 calls)
     wfcinit:wfcr :      0.14s CPU      0.24s WALL (       1 calls)
                                        0.24s GPU  (       1 calls)
     potinit      :      1.04s CPU      0.39s WALL (       1 calls)
     hinit0       :      0.72s CPU      0.46s WALL (       1 calls)

     Called by electrons:
     c_bands      :      3.33s CPU      4.29s WALL (      20 calls)
     sum_band     :      2.07s CPU      2.08s WALL (      20 calls)
     v_of_rho     :      7.31s CPU      2.54s WALL (      21 calls)
     v_h          :      0.41s CPU      0.15s WALL (      21 calls)
     v_xc         :      7.23s CPU      2.50s WALL (      22 calls)
     newd         :      0.91s CPU      1.99s WALL (      21 calls)
                                        1.99s GPU  (      21 calls)
     PAW_pot      :      3.68s CPU      1.60s WALL (      21 calls)
     mix_rho      :      0.86s CPU      0.44s WALL (      20 calls)

     Called by c_bands:
     init_us_2_gp :      0.06s CPU      0.10s WALL (      41 calls)
     regterg      :      3.24s CPU      4.16s WALL (      20 calls)

     Called by sum_band:
     sum_band:wei :      0.00s CPU      0.00s WALL (      20 calls)
                                        0.00s GPU  (      20 calls)
     sum_band:loo :      1.34s CPU      1.74s WALL (      20 calls)
                                        1.74s GPU  (      20 calls)
     sum_band:buf :      0.00s CPU      0.00s WALL (      20 calls)
                                        0.00s GPU  (      20 calls)
     sum_band:ini :      0.03s CPU      0.06s WALL (      20 calls)
                                        0.05s GPU  (      20 calls)
     sum_band:cal :      0.03s CPU      0.03s WALL (      20 calls)
                                        0.03s GPU  (      20 calls)
     sum_band:bec :      0.04s CPU      0.05s WALL (      20 calls)
                                        0.05s GPU  (      20 calls)
     addusdens    :      0.14s CPU      0.11s WALL (      20 calls)
                                        0.10s GPU  (      20 calls)
     addusd:skk   :      0.05s CPU      0.04s WALL (      40 calls)
                                        0.02s GPU  (      40 calls)

     Called by *egterg:
     rdiaghg      :      0.57s CPU      0.71s WALL (      72 calls)
                                        0.70s GPU  (      72 calls)
     regterg:over :      0.07s CPU      0.08s WALL (      52 calls)
     regterg:upda :      0.03s CPU      0.04s WALL (      52 calls)
     regterg:last :      0.04s CPU      0.04s WALL (      49 calls)
     h_psi        :      2.36s CPU      2.83s WALL (      73 calls)
                                        2.82s GPU  (      73 calls)
     s_psi        :      0.06s CPU      0.09s WALL (      73 calls)
                                        0.08s GPU  (      73 calls)
     g_psi        :      0.00s CPU      0.01s WALL (      52 calls)
                                        0.00s GPU  (      52 calls)

     Called by h_psi:
     h_psi:calbec :      0.07s CPU      0.09s WALL (      73 calls)
                                        0.07s GPU  (      73 calls)
     vloc_psi     :      2.15s CPU      2.58s WALL (      73 calls)
                                        2.57s GPU  (      73 calls)
     add_vuspsi   :      0.04s CPU      0.07s WALL (      73 calls)
                                        0.07s GPU  (      73 calls)

     General routines
     calbec       :      0.10s CPU      0.12s WALL (      97 calls)
     fft          :      3.86s CPU      1.94s WALL (     238 calls)
                                        0.41s GPU  (      25 calls)
     ffts         :      0.31s CPU      0.12s WALL (      41 calls)
     fftw         :      3.00s CPU      3.93s WALL (    1790 calls)
                                        3.51s GPU  (    1790 calls)
     interpolate  :      0.53s CPU      0.20s WALL (      21 calls)
 
     Parallel routines

     PAW routines
     PAW_pot      :      3.68s CPU      1.60s WALL (      21 calls)
 
     PWSCF        :     21.96s CPU     16.03s WALL

 
   This run was terminated on:   0:28:36  30Sep2021            

=------------------------------------------------------------------------------=
   JOB DONE.
=------------------------------------------------------------------------------=
