
     Program PWSCF v.6.6 starts on 28Jun2021 at 21:11:55 

     This program is part of the open-source Quantum ESPRESSO suite
     for quantum simulation of materials; please cite
         "P. Giannozzi et al., J. Phys.:Condens. Matter 21 395502 (2009);
         "P. Giannozzi et al., J. Phys.:Condens. Matter 29 465901 (2017);
          URL http://www.quantum-espresso.org", 
     in publications or presentations arising from this work. More details at
     http://www.quantum-espresso.org/quote

     Parallel version (MPI & OpenMP), running on     192 processor cores
     Number of MPI processes:                96
     Threads/MPI process:                     2

     MPI processes distributed on     4 nodes
     K-points division:     npool     =       2
     R & G space division:  proc/nbgrp/npool/nimage =      48
     wavefunctions fft division:  Y-proc x Z-proc =       8      6
     wavefunctions fft division:  task group distribution
                                  #TG    x Z-proc =       8      6
     Fft bands division:     nmany     =       1
     Reading input from ../inputs/input_quarzo_144
Warning: card &CELL ignored
Warning: card / ignored

     Current dimensions of program PWSCF are:
     Max number of different atomic species (ntypx) = 10
     Max number of k-points (npk) =  40000
     Max angular momentum in pseudopotentials (lmaxx) =  3

     Subspace diagonalization in iterative solution of the eigenvalue problem:
     one sub-group per band group will be used
     ELPA distributed-memory algorithm (size of sub-group:  6*  6 procs)

     Found symmetry operation: I + ( -0.0000  0.5000  0.0000)
     This is a supercell, fractional translations are disabled
 
     Parallelization info
     --------------------
     sticks:   dense  smooth     PW     G-vecs:    dense   smooth      PW
     Min         315     156     38                24515     8662    1126
     Max         319     161     43                24651     8751    1197
     Sum       15199    7603   1969              1179679   417105   55249
 

     Title: 
     'srtio_bulk'                                                               


     bravais-lattice index     =            8
     lattice parameter (alat)  =      18.5722  a.u.
     unit-cell volume          =   12204.3243 (a.u.)^3
     number of atoms/cell      =          144
     number of atomic types    =            2
     number of electrons       =       768.00
     number of Kohn-Sham states=          384
     kinetic-energy cutoff     =      40.0000  Ry
     charge density cutoff     =     320.0000  Ry
     convergence threshold     =      1.0E-10
     mixing beta               =       0.7000
     number of iterations used =            8  plain     mixing
     Exchange-correlation= PBESOL
                           (   1   4  10   8   0   0   0)

     celldm(1)=  18.572236  celldm(2)=   1.732051  celldm(3)=   1.099919
     celldm(4)=   0.000000  celldm(5)=   0.000000  celldm(6)=   0.000000

     crystal axes: (cart. coord. in units of alat)
               a(1) = (   1.000000   0.000000   0.000000 )  
               a(2) = (   0.000000   1.732051   0.000000 )  
               a(3) = (   0.000000   0.000000   1.099919 )  

     reciprocal axes: (cart. coord. in units 2 pi/alat)
               b(1) = (  1.000000  0.000000  0.000000 )  
               b(2) = (  0.000000  0.577350  0.000000 )  
               b(3) = (  0.000000  0.000000  0.909158 )  


     PseudoPot. # 1 for Si read from file:
     ./Si.pbesol-n-rrkjus_psl.0.1.UPF
     MD5 check sum: 84986bd6be9e79932892c86d18f23292
     Pseudo is Ultrasoft + core correction, Zval =  4.0
     Generated using "atomic" code by A. Dal Corso v.5.0.2 svn rev. 9415
     Using radial grid of 1141 points,  4 beta functions with: 
                l(1) =   0
                l(2) =   0
                l(3) =   1
                l(4) =   1
     Q(r) pseudized with 0 coefficients 


     PseudoPot. # 2 for O  read from file:
     ./O.pbesol-n-rrkjus_psl.0.1.UPF
     MD5 check sum: 860b55360c6eac1e4db712ce01d51bd8
     Pseudo is Ultrasoft + core correction, Zval =  6.0
     Generated using "atomic" code by A. Dal Corso v.5.0.2 svn rev. 9415
     Using radial grid of 1095 points,  4 beta functions with: 
                l(1) =   0
                l(2) =   0
                l(3) =   1
                l(4) =   1
     Q(r) pseudized with 0 coefficients 


     atomic species   valence    mass     pseudopotential
        Si             4.00    47.86700     Si( 1.00)
        O              6.00    15.99940     O ( 1.00)

      2 Sym. Ops. (no inversion) found


                                    s                        frac. trans.

      isym =  1     identity                                     

 cryst.   s( 1) = (     1          0          0      )
                  (     0          1          0      )
                  (     0          0          1      )

 cart.    s( 1) = (  1.0000000  0.0000000  0.0000000 )
                  (  0.0000000  1.0000000  0.0000000 )
                  (  0.0000000  0.0000000  1.0000000 )


      isym =  2     180 deg rotation - cart. axis [1,0,0]        

 cryst.   s( 2) = (     1          0          0      )
                  (     0         -1          0      )
                  (     0          0         -1      )

 cart.    s( 2) = (  1.0000000  0.0000000  0.0000000 )
                  (  0.0000000 -1.0000000  0.0000000 )
                  (  0.0000000  0.0000000 -1.0000000 )


     point group C_2  (2)   
     there are  2 classes
     the character table:

       E     C2   
A      1.00  1.00
B      1.00 -1.00

     the symmetry operations in each class and the name of the first element:

     E        1
          identity                                               
     C2       2
          180 deg rotation - cart. axis [1,0,0]                  

   Cartesian axes

     site n.     atom                  positions (alat units)
         1           Si  tau(   1) = (   0.2336019   0.0000000   0.0000000  )
         2           Si  tau(   2) = (   0.2336018   0.8660254   0.0000000  )
         3           Si  tau(   3) = (   0.7336019   0.0000000   0.0000000  )
         4           Si  tau(   4) = (   0.7336017   0.8660254   0.0000000  )
         5           Si  tau(   5) = (   0.4836018   0.4330124  -0.0000000  )
         6           Si  tau(   6) = (   0.4836018   1.2990384   0.0000000  )
         7           Si  tau(   7) = (   0.9836018   0.4330124  -0.0000000  )
         8           Si  tau(   8) = (   0.9836018   1.2990384   0.0000000  )
         9           O   tau(   9) = (   0.1375593   0.7487730   0.0636614  )
        10           O   tau(  10) = (   0.1375592   1.6147982   0.0636615  )
        11           O   tau(  11) = (   0.6375593   0.7487730   0.0636614  )
        12           O   tau(  12) = (   0.6375593   1.6147982   0.0636615  )
        13           O   tau(  13) = (   0.3875593   0.3157603   0.0636613  )
        14           O   tau(  14) = (   0.3875592   1.1817854   0.0636616  )
        15           O   tau(  15) = (   0.8875594   0.3157604   0.0636613  )
        16           O   tau(  16) = (   0.8875592   1.1817854   0.0636616  )
        17           O   tau(  17) = (   0.3291810   0.0609329   0.1197170  )
        18           O   tau(  18) = (   0.3291809   0.9269582   0.1197169  )
        19           O   tau(  19) = (   0.8291810   0.0609330   0.1197170  )
        20           O   tau(  20) = (   0.8291810   0.9269583   0.1197169  )
        21           O   tau(  21) = (   0.0791811   0.4939458   0.1197171  )
        22           O   tau(  22) = (   0.0791809   1.3599708   0.1197169  )
        23           O   tau(  23) = (   0.5791810   0.4939457   0.1197171  )
        24           O   tau(  24) = (   0.5791809   1.3599709   0.1197169  )
        25           Si  tau(  25) = (   0.3832116   0.2025318   0.1833528  )
        26           Si  tau(  26) = (   0.3832117   1.0685575   0.1833528  )
        27           Si  tau(  27) = (   0.8832116   0.2025318   0.1833528  )
        28           Si  tau(  28) = (   0.8832116   1.0685575   0.1833528  )
        29           Si  tau(  29) = (   0.1332116   0.6355445   0.1833528  )
        30           Si  tau(  30) = (   0.1332116   1.5015703   0.1833528  )
        31           Si  tau(  31) = (   0.6332115   0.6355445   0.1833528  )
        32           Si  tau(  32) = (   0.6332116   1.5015702   0.1833528  )
        33           O   tau(  33) = (   0.0332472   0.1785583   0.2462572  )
        34           O   tau(  34) = (   0.0332472   1.0445836   0.2462571  )
        35           O   tau(  35) = (   0.5332472   0.1785583   0.2462572  )
        36           O   tau(  36) = (   0.5332472   1.0445836   0.2462571  )
        37           O   tau(  37) = (   0.2832472   0.6115710   0.2462572  )
        38           O   tau(  38) = (   0.2832472   1.4775963   0.2462571  )
        39           O   tau(  39) = (   0.7832472   0.6115709   0.2462572  )
        40           O   tau(  40) = (   0.7832472   1.4775963   0.2462571  )
        41           O   tau(  41) = (   0.0332472   0.6874672   0.3037021  )
        42           O   tau(  42) = (   0.0332473   1.5534926   0.3037020  )
        43           O   tau(  43) = (   0.5332472   0.6874672   0.3037021  )
        44           O   tau(  44) = (   0.5332473   1.5534926   0.3037021  )
        45           O   tau(  45) = (   0.2832473   0.2544545   0.3037021  )
        46           O   tau(  46) = (   0.2832472   1.1204798   0.3037021  )
        47           O   tau(  47) = (   0.7832472   0.2544545   0.3037021  )
        48           O   tau(  48) = (   0.7832473   1.1204798   0.3037020  )
        49           Si  tau(  49) = (   0.3832117   0.6634933   0.3666066  )
        50           Si  tau(  50) = (   0.3832116   1.5295190   0.3666066  )
        51           Si  tau(  51) = (   0.8832116   0.6634933   0.3666066  )
        52           Si  tau(  52) = (   0.8832116   1.5295190   0.3666066  )
        53           Si  tau(  53) = (   0.1332116   0.2304805   0.3666066  )
        54           Si  tau(  54) = (   0.1332116   1.0965063   0.3666066  )
        55           Si  tau(  55) = (   0.6332116   0.2304806   0.3666066  )
        56           Si  tau(  56) = (   0.6332115   1.0965063   0.3666066  )
        57           O   tau(  57) = (   0.3291810   0.8050926   0.4302424  )
        58           O   tau(  58) = (   0.3291810   1.6711178   0.4302423  )
        59           O   tau(  59) = (   0.8291810   0.8050925   0.4302423  )
        60           O   tau(  60) = (   0.8291810   1.6711178   0.4302423  )
        61           O   tau(  61) = (   0.0791809   0.3720799   0.4302424  )
        62           O   tau(  62) = (   0.0791811   1.2381050   0.4302422  )
        63           O   tau(  63) = (   0.5791809   0.3720799   0.4302424  )
        64           O   tau(  64) = (   0.5791811   1.2381050   0.4302422  )
        65           O   tau(  65) = (   0.1375592   0.1172527   0.4862977  )
        66           O   tau(  66) = (   0.1375593   0.9832779   0.4862979  )
        67           O   tau(  67) = (   0.6375592   0.1172527   0.4862977  )
        68           O   tau(  68) = (   0.6375593   0.9832778   0.4862979  )
        69           O   tau(  69) = (   0.3875592   0.5502655   0.4862977  )
        70           O   tau(  70) = (   0.3875593   1.4162905   0.4862979  )
        71           O   tau(  71) = (   0.8875592   0.5502655   0.4862977  )
        72           O   tau(  72) = (   0.8875594   1.4162905   0.4862980  )
        73           Si  tau(  73) = (   0.2336018   0.0000000   0.5499593  )
        74           Si  tau(  74) = (   0.2336019   0.8660254   0.5499593  )
        75           Si  tau(  75) = (   0.7336019   0.0000000   0.5499593  )
        76           Si  tau(  76) = (   0.7336017   0.8660254   0.5499593  )
        77           Si  tau(  77) = (   0.4836018   0.4330124   0.5499593  )
        78           Si  tau(  78) = (   0.4836018   1.2990384   0.5499593  )
        79           Si  tau(  79) = (   0.9836018   0.4330124   0.5499593  )
        80           Si  tau(  80) = (   0.9836018   1.2990384   0.5499593  )
        81           O   tau(  81) = (   0.1375593   0.7487729   0.6136207  )
        82           O   tau(  82) = (   0.1375592   1.6147981   0.6136209  )
        83           O   tau(  83) = (   0.6375593   0.7487730   0.6136207  )
        84           O   tau(  84) = (   0.6375592   1.6147981   0.6136209  )
        85           O   tau(  85) = (   0.3875593   0.3157603   0.6136207  )
        86           O   tau(  86) = (   0.3875592   1.1817853   0.6136209  )
        87           O   tau(  87) = (   0.8875594   0.3157603   0.6136206  )
        88           O   tau(  88) = (   0.8875592   1.1817853   0.6136209  )
        89           O   tau(  89) = (   0.3291810   0.0609330   0.6696763  )
        90           O   tau(  90) = (   0.3291810   0.9269582   0.6696762  )
        91           O   tau(  91) = (   0.8291810   0.0609330   0.6696763  )
        92           O   tau(  92) = (   0.8291810   0.9269583   0.6696763  )
        93           O   tau(  93) = (   0.0791811   0.4939458   0.6696764  )
        94           O   tau(  94) = (   0.0791809   1.3599709   0.6696762  )
        95           O   tau(  95) = (   0.5791811   0.4939458   0.6696764  )
        96           O   tau(  96) = (   0.5791809   1.3599709   0.6696762  )
        97           Si  tau(  97) = (   0.3832116   0.2025318   0.7333120  )
        98           Si  tau(  98) = (   0.3832117   1.0685576   0.7333120  )
        99           Si  tau(  99) = (   0.8832116   0.2025318   0.7333120  )
       100           Si  tau( 100) = (   0.8832116   1.0685576   0.7333120  )
       101           Si  tau( 101) = (   0.1332116   0.6355445   0.7333120  )
       102           Si  tau( 102) = (   0.1332116   1.5015703   0.7333120  )
       103           Si  tau( 103) = (   0.6332115   0.6355445   0.7333120  )
       104           Si  tau( 104) = (   0.6332116   1.5015702   0.7333120  )
       105           O   tau( 105) = (   0.0332473   0.1785583   0.7962166  )
       106           O   tau( 106) = (   0.0332472   1.0445836   0.7962165  )
       107           O   tau( 107) = (   0.5332473   0.1785583   0.7962165  )
       108           O   tau( 108) = (   0.5332472   1.0445836   0.7962165  )
       109           O   tau( 109) = (   0.2832472   0.6115710   0.7962165  )
       110           O   tau( 110) = (   0.2832473   1.4775963   0.7962165  )
       111           O   tau( 111) = (   0.7832473   0.6115710   0.7962166  )
       112           O   tau( 112) = (   0.7832472   1.4775963   0.7962165  )
       113           O   tau( 113) = (   0.0332472   0.6874672   0.8536615  )
       114           O   tau( 114) = (   0.0332472   1.5534926   0.8536614  )
       115           O   tau( 115) = (   0.5332472   0.6874672   0.8536615  )
       116           O   tau( 116) = (   0.5332472   1.5534925   0.8536614  )
       117           O   tau( 117) = (   0.2832472   0.2544545   0.8536615  )
       118           O   tau( 118) = (   0.2832472   1.1204799   0.8536614  )
       119           O   tau( 119) = (   0.7832472   0.2544545   0.8536615  )
       120           O   tau( 120) = (   0.7832472   1.1204799   0.8536614  )
       121           Si  tau( 121) = (   0.3832117   0.6634933   0.9165658  )
       122           Si  tau( 122) = (   0.3832116   1.5295190   0.9165658  )
       123           Si  tau( 123) = (   0.8832116   0.6634933   0.9165658  )
       124           Si  tau( 124) = (   0.8832116   1.5295190   0.9165658  )
       125           Si  tau( 125) = (   0.1332116   0.2304805   0.9165658  )
       126           Si  tau( 126) = (   0.1332116   1.0965063   0.9165658  )
       127           Si  tau( 127) = (   0.6332116   0.2304806   0.9165658  )
       128           Si  tau( 128) = (   0.6332115   1.0965063   0.9165658  )
       129           O   tau( 129) = (   0.3291809   0.8050926   0.9802017  )
       130           O   tau( 130) = (   0.3291810   1.6711179   0.9802016  )
       131           O   tau( 131) = (   0.8291810   0.8050925   0.9802017  )
       132           O   tau( 132) = (   0.8291810   1.6711179   0.9802016  )
       133           O   tau( 133) = (   0.0791809   0.3720800   0.9802017  )
       134           O   tau( 134) = (   0.0791811   1.2381051   0.9802015  )
       135           O   tau( 135) = (   0.5791809   0.3720800   0.9802017  )
       136           O   tau( 136) = (   0.5791810   1.2381051   0.9802015  )
       137           O   tau( 137) = (   0.1375592   0.1172526   1.0362571  )
       138           O   tau( 138) = (   0.1375593   0.9832778   1.0362572  )
       139           O   tau( 139) = (   0.6375593   0.1172526   1.0362571  )
       140           O   tau( 140) = (   0.6375593   0.9832778   1.0362572  )
       141           O   tau( 141) = (   0.3875592   0.5502654   1.0362570  )
       142           O   tau( 142) = (   0.3875593   1.4162905   1.0362573  )
       143           O   tau( 143) = (   0.8875592   0.5502655   1.0362570  )
       144           O   tau( 144) = (   0.8875594   1.4162904   1.0362573  )

   Crystallographic axes

     site n.     atom                  positions (cryst. coord.)
         1           Si  tau(   1) = (  0.2336019  0.0000000  0.0000000  )
         2           Si  tau(   2) = (  0.2336018  0.5000000  0.0000000  )
         3           Si  tau(   3) = (  0.7336019  0.0000000  0.0000000  )
         4           Si  tau(   4) = (  0.7336017  0.5000000  0.0000000  )
         5           Si  tau(   5) = (  0.4836018  0.2499999 -0.0000000  )
         6           Si  tau(   6) = (  0.4836018  0.7500001  0.0000000  )
         7           Si  tau(   7) = (  0.9836018  0.2499998 -0.0000000  )
         8           Si  tau(   8) = (  0.9836018  0.7500002  0.0000000  )
         9           O   tau(   9) = (  0.1375593  0.4323043  0.0578783  )
        10           O   tau(  10) = (  0.1375592  0.9323042  0.0578784  )
        11           O   tau(  11) = (  0.6375593  0.4323043  0.0578783  )
        12           O   tau(  12) = (  0.6375593  0.9323042  0.0578784  )
        13           O   tau(  13) = (  0.3875593  0.1823043  0.0578782  )
        14           O   tau(  14) = (  0.3875592  0.6823041  0.0578785  )
        15           O   tau(  15) = (  0.8875594  0.1823043  0.0578782  )
        16           O   tau(  16) = (  0.8875592  0.6823041  0.0578785  )
        17           O   tau(  17) = (  0.3291810  0.0351797  0.1088417  )
        18           O   tau(  18) = (  0.3291809  0.5351796  0.1088416  )
        19           O   tau(  19) = (  0.8291810  0.0351797  0.1088417  )
        20           O   tau(  20) = (  0.8291810  0.5351796  0.1088416  )
        21           O   tau(  21) = (  0.0791811  0.2851797  0.1088418  )
        22           O   tau(  22) = (  0.0791809  0.7851795  0.1088416  )
        23           O   tau(  23) = (  0.5791810  0.2851797  0.1088417  )
        24           O   tau(  24) = (  0.5791809  0.7851795  0.1088416  )
        25           Si  tau(  25) = (  0.3832116  0.1169318  0.1666967  )
        26           Si  tau(  26) = (  0.3832117  0.6169320  0.1666967  )
        27           Si  tau(  27) = (  0.8832116  0.1169318  0.1666967  )
        28           Si  tau(  28) = (  0.8832116  0.6169320  0.1666967  )
        29           Si  tau(  29) = (  0.1332116  0.3669318  0.1666967  )
        30           Si  tau(  30) = (  0.1332116  0.8669320  0.1666967  )
        31           Si  tau(  31) = (  0.6332115  0.3669318  0.1666967  )
        32           Si  tau(  32) = (  0.6332116  0.8669320  0.1666967  )
        33           O   tau(  33) = (  0.0332472  0.1030907  0.2238867  )
        34           O   tau(  34) = (  0.0332472  0.6030906  0.2238867  )
        35           O   tau(  35) = (  0.5332472  0.1030907  0.2238867  )
        36           O   tau(  36) = (  0.5332472  0.6030906  0.2238867  )
        37           O   tau(  37) = (  0.2832472  0.3530907  0.2238867  )
        38           O   tau(  38) = (  0.2832472  0.8530906  0.2238867  )
        39           O   tau(  39) = (  0.7832472  0.3530907  0.2238868  )
        40           O   tau(  40) = (  0.7832472  0.8530906  0.2238867  )
        41           O   tau(  41) = (  0.0332472  0.3969094  0.2761133  )
        42           O   tau(  42) = (  0.0332473  0.8969093  0.2761132  )
        43           O   tau(  43) = (  0.5332472  0.3969094  0.2761133  )
        44           O   tau(  44) = (  0.5332473  0.8969093  0.2761132  )
        45           O   tau(  45) = (  0.2832473  0.1469094  0.2761133  )
        46           O   tau(  46) = (  0.2832472  0.6469093  0.2761132  )
        47           O   tau(  47) = (  0.7832472  0.1469094  0.2761133  )
        48           O   tau(  48) = (  0.7832473  0.6469093  0.2761132  )
        49           Si  tau(  49) = (  0.3832117  0.3830680  0.3333034  )
        50           Si  tau(  50) = (  0.3832116  0.8830682  0.3333034  )
        51           Si  tau(  51) = (  0.8832116  0.3830680  0.3333034  )
        52           Si  tau(  52) = (  0.8832116  0.8830682  0.3333034  )
        53           Si  tau(  53) = (  0.1332116  0.1330680  0.3333034  )
        54           Si  tau(  54) = (  0.1332116  0.6330682  0.3333034  )
        55           Si  tau(  55) = (  0.6332116  0.1330680  0.3333034  )
        56           Si  tau(  56) = (  0.6332115  0.6330682  0.3333034  )
        57           O   tau(  57) = (  0.3291810  0.4648204  0.3911584  )
        58           O   tau(  58) = (  0.3291810  0.9648203  0.3911583  )
        59           O   tau(  59) = (  0.8291810  0.4648204  0.3911583  )
        60           O   tau(  60) = (  0.8291810  0.9648203  0.3911583  )
        61           O   tau(  61) = (  0.0791809  0.2148205  0.3911584  )
        62           O   tau(  62) = (  0.0791811  0.7148203  0.3911582  )
        63           O   tau(  63) = (  0.5791809  0.2148204  0.3911584  )
        64           O   tau(  64) = (  0.5791811  0.7148203  0.3911582  )
        65           O   tau(  65) = (  0.1375592  0.0676959  0.4421216  )
        66           O   tau(  66) = (  0.1375593  0.5676957  0.4421217  )
        67           O   tau(  67) = (  0.6375592  0.0676959  0.4421216  )
        68           O   tau(  68) = (  0.6375593  0.5676957  0.4421217  )
        69           O   tau(  69) = (  0.3875592  0.3176959  0.4421215  )
        70           O   tau(  70) = (  0.3875593  0.8176957  0.4421217  )
        71           O   tau(  71) = (  0.8875592  0.3176959  0.4421215  )
        72           O   tau(  72) = (  0.8875594  0.8176957  0.4421218  )
        73           Si  tau(  73) = (  0.2336018  0.0000000  0.5000000  )
        74           Si  tau(  74) = (  0.2336019  0.5000000  0.5000000  )
        75           Si  tau(  75) = (  0.7336019  0.0000000  0.5000000  )
        76           Si  tau(  76) = (  0.7336017  0.5000000  0.5000000  )
        77           Si  tau(  77) = (  0.4836018  0.2499999  0.5000000  )
        78           Si  tau(  78) = (  0.4836018  0.7500001  0.5000000  )
        79           Si  tau(  79) = (  0.9836018  0.2499998  0.5000000  )
        80           Si  tau(  80) = (  0.9836018  0.7500002  0.5000000  )
        81           O   tau(  81) = (  0.1375593  0.4323043  0.5578783  )
        82           O   tau(  82) = (  0.1375592  0.9323041  0.5578784  )
        83           O   tau(  83) = (  0.6375593  0.4323043  0.5578783  )
        84           O   tau(  84) = (  0.6375592  0.9323041  0.5578784  )
        85           O   tau(  85) = (  0.3875593  0.1823043  0.5578783  )
        86           O   tau(  86) = (  0.3875592  0.6823041  0.5578785  )
        87           O   tau(  87) = (  0.8875594  0.1823043  0.5578782  )
        88           O   tau(  88) = (  0.8875592  0.6823041  0.5578785  )
        89           O   tau(  89) = (  0.3291810  0.0351797  0.6088417  )
        90           O   tau(  90) = (  0.3291810  0.5351796  0.6088416  )
        91           O   tau(  91) = (  0.8291810  0.0351797  0.6088417  )
        92           O   tau(  92) = (  0.8291810  0.5351796  0.6088417  )
        93           O   tau(  93) = (  0.0791811  0.2851797  0.6088418  )
        94           O   tau(  94) = (  0.0791809  0.7851795  0.6088416  )
        95           O   tau(  95) = (  0.5791811  0.2851797  0.6088418  )
        96           O   tau(  96) = (  0.5791809  0.7851796  0.6088416  )
        97           Si  tau(  97) = (  0.3832116  0.1169318  0.6666966  )
        98           Si  tau(  98) = (  0.3832117  0.6169320  0.6666966  )
        99           Si  tau(  99) = (  0.8832116  0.1169318  0.6666966  )
       100           Si  tau( 100) = (  0.8832116  0.6169320  0.6666966  )
       101           Si  tau( 101) = (  0.1332116  0.3669318  0.6666966  )
       102           Si  tau( 102) = (  0.1332116  0.8669320  0.6666966  )
       103           Si  tau( 103) = (  0.6332115  0.3669318  0.6666966  )
       104           Si  tau( 104) = (  0.6332116  0.8669320  0.6666966  )
       105           O   tau( 105) = (  0.0332473  0.1030907  0.7238868  )
       106           O   tau( 106) = (  0.0332472  0.6030906  0.7238867  )
       107           O   tau( 107) = (  0.5332473  0.1030907  0.7238868  )
       108           O   tau( 108) = (  0.5332472  0.6030906  0.7238867  )
       109           O   tau( 109) = (  0.2832472  0.3530907  0.7238868  )
       110           O   tau( 110) = (  0.2832473  0.8530906  0.7238867  )
       111           O   tau( 111) = (  0.7832473  0.3530907  0.7238868  )
       112           O   tau( 112) = (  0.7832472  0.8530906  0.7238867  )
       113           O   tau( 113) = (  0.0332472  0.3969094  0.7761133  )
       114           O   tau( 114) = (  0.0332472  0.8969093  0.7761133  )
       115           O   tau( 115) = (  0.5332472  0.3969094  0.7761133  )
       116           O   tau( 116) = (  0.5332472  0.8969093  0.7761133  )
       117           O   tau( 117) = (  0.2832472  0.1469094  0.7761133  )
       118           O   tau( 118) = (  0.2832472  0.6469093  0.7761133  )
       119           O   tau( 119) = (  0.7832472  0.1469094  0.7761133  )
       120           O   tau( 120) = (  0.7832472  0.6469093  0.7761132  )
       121           Si  tau( 121) = (  0.3832117  0.3830680  0.8333033  )
       122           Si  tau( 122) = (  0.3832116  0.8830682  0.8333033  )
       123           Si  tau( 123) = (  0.8832116  0.3830680  0.8333033  )
       124           Si  tau( 124) = (  0.8832116  0.8830682  0.8333033  )
       125           Si  tau( 125) = (  0.1332116  0.1330680  0.8333033  )
       126           Si  tau( 126) = (  0.1332116  0.6330682  0.8333033  )
       127           Si  tau( 127) = (  0.6332116  0.1330680  0.8333033  )
       128           Si  tau( 128) = (  0.6332115  0.6330682  0.8333033  )
       129           O   tau( 129) = (  0.3291809  0.4648204  0.8911584  )
       130           O   tau( 130) = (  0.3291810  0.9648203  0.8911583  )
       131           O   tau( 131) = (  0.8291810  0.4648204  0.8911584  )
       132           O   tau( 132) = (  0.8291810  0.9648203  0.8911583  )
       133           O   tau( 133) = (  0.0791809  0.2148205  0.8911584  )
       134           O   tau( 134) = (  0.0791811  0.7148203  0.8911582  )
       135           O   tau( 135) = (  0.5791809  0.2148205  0.8911584  )
       136           O   tau( 136) = (  0.5791810  0.7148203  0.8911583  )
       137           O   tau( 137) = (  0.1375592  0.0676958  0.9421216  )
       138           O   tau( 138) = (  0.1375593  0.5676957  0.9421217  )
       139           O   tau( 139) = (  0.6375593  0.0676958  0.9421216  )
       140           O   tau( 140) = (  0.6375593  0.5676957  0.9421217  )
       141           O   tau( 141) = (  0.3875592  0.3176959  0.9421215  )
       142           O   tau( 142) = (  0.3875593  0.8176957  0.9421218  )
       143           O   tau( 143) = (  0.8875592  0.3176959  0.9421215  )
       144           O   tau( 144) = (  0.8875594  0.8176957  0.9421218  )

     number of k points=     2
                       cart. coord. in units 2pi/alat
        k(    1) = (   0.2500000   0.1443376   0.2272895), wk =   1.0000000
        k(    2) = (  -0.2500000   0.1443376  -0.2272895), wk =   1.0000000

                       cryst. coord.
        k(    1) = (   0.2500000   0.2500000   0.2500000), wk =   1.0000000
        k(    2) = (  -0.2500000   0.2500000  -0.2500000), wk =   1.0000000

     Dense  grid:  1179679 G-vectors     FFT dimensions: ( 108, 192, 120)

     Smooth grid:   417105 G-vectors     FFT dimensions: (  75, 135,  90)

     Dynamical RAM for                 wfc:       6.36 MB

     Dynamical RAM for     wfc (w. buffer):       6.36 MB

     Dynamical RAM for           str. fact:       0.75 MB

     Dynamical RAM for           local pot:       0.00 MB

     Dynamical RAM for          nlocal pot:      19.09 MB

     Dynamical RAM for                qrad:       0.82 MB

     Dynamical RAM for          rho,v,vnew:       2.36 MB

     Dynamical RAM for               rhoin:       0.79 MB

     Dynamical RAM for            rho*nmix:       6.02 MB

     Dynamical RAM for           G-vectors:       1.48 MB

     Dynamical RAM for          h,s,v(r/c):       0.75 MB

     Dynamical RAM for          <psi|beta>:       6.75 MB

     Dynamical RAM for                 psi:      12.73 MB

     Dynamical RAM for                hpsi:      12.73 MB

     Dynamical RAM for                spsi:      12.73 MB

     Dynamical RAM for      wfcinit/wfcrot:      26.69 MB

     Dynamical RAM for           addusdens:      26.33 MB

     Dynamical RAM for          addusforce:      62.14 MB

     Estimated static dynamical RAM per process >      40.85 MB

     Estimated max dynamical RAM per process >     102.99 MB

     Estimated total dynamical RAM >       9.65 GB

     Check: negative core charge=   -0.000035

     Initial potential from superposition of free atoms

     starting charge  767.97392, renormalised to  768.00000
     Starting wfcs are  576 randomized atomic wfcs

     total cpu time spent up to now is        3.2 secs

     Self-consistent Calculation

     iteration #  1     ecut=    40.00 Ry     beta= 0.70
     Davidson diagonalization with overlap
     ethr =  1.00E-02,  avg # of iterations =  3.0

     total cpu time spent up to now is        5.9 secs

     total energy              =   -3765.90557436 Ry
     estimated scf accuracy    <      34.23413022 Ry

     iteration #  2     ecut=    40.00 Ry     beta= 0.70
     Davidson diagonalization with overlap
     ethr =  4.46E-03,  avg # of iterations =  3.0

     total cpu time spent up to now is        8.5 secs

     total energy              =   -3778.29499159 Ry
     estimated scf accuracy    <      15.82706881 Ry

     iteration #  3     ecut=    40.00 Ry     beta= 0.70
     Davidson diagonalization with overlap
     ethr =  2.06E-03,  avg # of iterations =  2.0

     total cpu time spent up to now is       10.6 secs

     total energy              =   -3779.92105415 Ry
     estimated scf accuracy    <       0.66685849 Ry

     iteration #  4     ecut=    40.00 Ry     beta= 0.70
     Davidson diagonalization with overlap
     ethr =  8.68E-05,  avg # of iterations =  5.0

     total cpu time spent up to now is       13.8 secs

     total energy              =   -3780.33178493 Ry
     estimated scf accuracy    <       0.31554590 Ry

     iteration #  5     ecut=    40.00 Ry     beta= 0.70
     Davidson diagonalization with overlap
     ethr =  4.11E-05,  avg # of iterations =  2.0

     total cpu time spent up to now is       15.6 secs

     total energy              =   -3780.33032536 Ry
     estimated scf accuracy    <       0.05957977 Ry

     iteration #  6     ecut=    40.00 Ry     beta= 0.70
     Davidson diagonalization with overlap
     ethr =  7.76E-06,  avg # of iterations =  4.0

     total cpu time spent up to now is       18.2 secs

     total energy              =   -3780.34691276 Ry
     estimated scf accuracy    <       0.00056556 Ry

     iteration #  7     ecut=    40.00 Ry     beta= 0.70
     Davidson diagonalization with overlap
     ethr =  7.36E-08,  avg # of iterations =  6.5

     total cpu time spent up to now is       22.1 secs

     total energy              =   -3780.34787450 Ry
     estimated scf accuracy    <       0.00012753 Ry

     iteration #  8     ecut=    40.00 Ry     beta= 0.70
     Davidson diagonalization with overlap
     ethr =  1.66E-08,  avg # of iterations =  3.0

     total cpu time spent up to now is       24.7 secs

     total energy              =   -3780.34791102 Ry
     estimated scf accuracy    <       0.00001696 Ry

     iteration #  9     ecut=    40.00 Ry     beta= 0.70
     Davidson diagonalization with overlap
     ethr =  2.21E-09,  avg # of iterations =  4.0

     total cpu time spent up to now is       27.3 secs

     total energy              =   -3780.34790501 Ry
     estimated scf accuracy    <       0.00003103 Ry

     iteration # 10     ecut=    40.00 Ry     beta= 0.70
     Davidson diagonalization with overlap
     ethr =  2.21E-09,  avg # of iterations =  2.0

     total cpu time spent up to now is       29.1 secs

     total energy              =   -3780.34790341 Ry
     estimated scf accuracy    <       0.00000822 Ry

     iteration # 11     ecut=    40.00 Ry     beta= 0.70
     Davidson diagonalization with overlap
     ethr =  1.07E-09,  avg # of iterations =  2.0

     total cpu time spent up to now is       31.2 secs

     total energy              =   -3780.34790401 Ry
     estimated scf accuracy    <       0.00000089 Ry

     iteration # 12     ecut=    40.00 Ry     beta= 0.70
     Davidson diagonalization with overlap
     ethr =  1.15E-10,  avg # of iterations =  5.0

     total cpu time spent up to now is       34.0 secs

     total energy              =   -3780.34790438 Ry
     estimated scf accuracy    <       0.00000002 Ry

     iteration # 13     ecut=    40.00 Ry     beta= 0.70
     Davidson diagonalization with overlap
     ethr =  2.64E-12,  avg # of iterations =  5.0

     total cpu time spent up to now is       36.9 secs

     total energy              =   -3780.34790438 Ry
     estimated scf accuracy    <       0.00000002 Ry

     iteration # 14     ecut=    40.00 Ry     beta= 0.70
     Davidson diagonalization with overlap
     ethr =  2.06E-12,  avg # of iterations =  2.0

     total cpu time spent up to now is       39.0 secs

     total energy              =   -3780.34790438 Ry
     estimated scf accuracy    <          1.2E-09 Ry

     iteration # 15     ecut=    40.00 Ry     beta= 0.70
     Davidson diagonalization with overlap
     ethr =  1.52E-13,  avg # of iterations =  5.0

     total cpu time spent up to now is       41.7 secs

     End of self-consistent calculation

          k = 0.2500 0.1443 0.2273 ( 52139 PWs)   bands (ev):

   -16.7978 -16.7092 -16.5644 -16.5491 -16.5482 -16.4968 -16.4831 -16.3933
   -16.3889 -16.3731 -16.3724 -16.3639 -16.3129 -16.3110 -16.2755 -16.2448
   -16.1415 -16.0961 -16.0103 -16.0017 -15.9941 -15.9505 -15.8886 -15.8863
   -15.8797 -15.8789 -15.8071 -15.7984 -15.7383 -15.7279 -15.6445 -15.6176
   -15.4875 -15.3734 -15.3731 -15.3438 -15.3231 -15.3219 -15.2844 -15.2734
   -15.2682 -15.2637 -15.1898 -15.1672 -15.1563 -15.1250 -14.9392 -14.8065
   -14.7738 -14.7733 -14.7722 -14.7586 -14.7533 -14.7532 -14.7530 -14.7523
   -14.7513 -14.7459 -14.7458 -14.7436 -14.7361 -14.7269 -14.7241 -14.7230
   -14.7221 -14.7205 -14.7196 -14.7195 -14.7185 -14.7131 -14.7105 -14.7101
   -14.7071 -14.7062 -14.7035 -14.7018 -14.7015 -14.6929 -14.6912 -14.6900
   -14.6897 -14.6894 -14.6877 -14.6876 -14.6873 -14.6836 -14.6813 -14.6813
   -14.6796 -14.6753 -14.6735 -14.6730 -14.6684 -14.6645 -14.6602 -14.6538
    -6.6200  -6.4161  -6.1013  -6.0746  -6.0731  -6.0024  -5.9557  -5.9086
    -5.9057  -5.8811  -5.8783  -5.8707  -5.8705  -5.7419  -5.7399  -5.5347
    -5.2100  -5.1634  -5.0036  -5.0022  -4.9673  -4.8438  -4.8028  -4.8025
    -4.7460  -4.7433  -4.6317  -4.5340  -4.5253  -4.5082  -4.3467  -4.2516
    -4.0328  -3.9694  -3.9067  -3.8994  -3.8135  -3.8087  -3.7956  -3.6599
    -3.6173  -3.6170  -3.5190  -3.4138  -3.4093  -3.4010  -3.1998  -3.0926
    -3.0357  -2.9534  -2.9474  -2.9328  -2.9326  -2.9290  -2.9234  -2.9205
    -2.9192  -2.9095  -2.8970  -2.8813  -2.8802  -2.8641  -2.8285  -2.8281
    -2.8064  -2.8030  -2.7899  -2.7812  -2.7379  -2.7364  -2.7333  -2.7321
    -2.7204  -2.7070  -2.6256  -2.6214  -2.5531  -2.5467  -2.5055  -2.4958
    -2.4943  -2.4899  -2.4548  -2.4501  -2.4393  -2.3857  -2.3714  -2.3516
    -2.3208  -2.3000  -2.2855  -2.2546  -2.2352  -2.1433  -2.1397  -2.0780
    -0.8027  -0.7832  -0.7826  -0.7593  -0.7499  -0.7388  -0.7372  -0.7350
    -0.6932  -0.6894  -0.6492  -0.6424  -0.6420  -0.6239  -0.6196  -0.6176
    -0.6142  -0.6132  -0.5457  -0.5171  -0.5037  -0.4819  -0.4695  -0.4686
    -0.4474  -0.3819  -0.3686  -0.3584  -0.3564  -0.3424  -0.3378  -0.3164
    -0.2597  -0.2591  -0.2374  -0.1889  -0.1797  -0.1789  -0.1601  -0.1393
    -0.1370  -0.1261  -0.1029  -0.0569  -0.0565  -0.0245  -0.0193   0.0338
     0.0892   0.1252   0.1288   0.1429   0.1447   0.1456   0.1707   0.1888
     0.1892   0.1914   0.2077   0.2765   0.2773   0.2775   0.3408   0.4081
     0.4134   0.4253   0.4261   0.4291   0.4297   0.4545   0.4585   0.4741
     0.4757   0.4940   0.4971   0.5220   0.5227   0.5228   0.5242   0.5992
     0.6179   0.6933   0.6986   0.7300   0.7524   0.7593   0.7797   0.7824
     0.8382   0.8417   0.8478   0.8493   0.8654   0.8723   0.9040   0.9197
     0.9450   0.9503   0.9536   0.9621   0.9626   0.9836   1.0098   1.0103
     1.0347   1.0490   1.0572   1.0746   1.0921   1.1100   1.1547   1.1756
     1.1844   1.1870   1.2147   1.2307   1.2311   1.2328   1.2537   1.2700
     1.2824   1.3047   1.3078   1.3095   1.3150   1.3188   1.3407   1.3412
     1.3537   1.3842   1.3992   1.4475   1.4516   1.4519   1.4835   1.4904
     1.4952   1.5103   1.5145   1.5160   1.5172   1.5339   1.5360   1.5472
     1.6177   1.6200   1.6287   1.6424   1.6612   1.6681   1.7115   1.7321
     1.7586   1.7588   1.7979   1.8031   1.8051   1.8513   1.8558   1.9030
     1.9035   1.9208   1.9637   1.9666   2.0403   2.0716   2.0880   2.0950
     2.0955   2.1033   2.1091   2.1182   2.1235   2.1673   2.1704   2.2112
     2.2168   2.2194   2.2292   2.2745   2.2985   2.3294   2.3306   2.3306
     2.3445   2.3466   2.3658   2.3673   2.4030   2.4032   2.4069   2.4099

     occupation numbers 
     1.0000   1.0000   1.0000   1.0000   1.0000   1.0000   1.0000   1.0000
     1.0000   1.0000   1.0000   1.0000   1.0000   1.0000   1.0000   1.0000
     1.0000   1.0000   1.0000   1.0000   1.0000   1.0000   1.0000   1.0000
     1.0000   1.0000   1.0000   1.0000   1.0000   1.0000   1.0000   1.0000
     1.0000   1.0000   1.0000   1.0000   1.0000   1.0000   1.0000   1.0000
     1.0000   1.0000   1.0000   1.0000   1.0000   1.0000   1.0000   1.0000
     1.0000   1.0000   1.0000   1.0000   1.0000   1.0000   1.0000   1.0000
     1.0000   1.0000   1.0000   1.0000   1.0000   1.0000   1.0000   1.0000
     1.0000   1.0000   1.0000   1.0000   1.0000   1.0000   1.0000   1.0000
     1.0000   1.0000   1.0000   1.0000   1.0000   1.0000   1.0000   1.0000
     1.0000   1.0000   1.0000   1.0000   1.0000   1.0000   1.0000   1.0000
     1.0000   1.0000   1.0000   1.0000   1.0000   1.0000   1.0000   1.0000
     1.0000   1.0000   1.0000   1.0000   1.0000   1.0000   1.0000   1.0000
     1.0000   1.0000   1.0000   1.0000   1.0000   1.0000   1.0000   1.0000
     1.0000   1.0000   1.0000   1.0000   1.0000   1.0000   1.0000   1.0000
     1.0000   1.0000   1.0000   1.0000   1.0000   1.0000   1.0000   1.0000
     1.0000   1.0000   1.0000   1.0000   1.0000   1.0000   1.0000   1.0000
     1.0000   1.0000   1.0000   1.0000   1.0000   1.0000   1.0000   1.0000
     1.0000   1.0000   1.0000   1.0000   1.0000   1.0000   1.0000   1.0000
     1.0000   1.0000   1.0000   1.0000   1.0000   1.0000   1.0000   1.0000
     1.0000   1.0000   1.0000   1.0000   1.0000   1.0000   1.0000   1.0000
     1.0000   1.0000   1.0000   1.0000   1.0000   1.0000   1.0000   1.0000
     1.0000   1.0000   1.0000   1.0000   1.0000   1.0000   1.0000   1.0000
     1.0000   1.0000   1.0000   1.0000   1.0000   1.0000   1.0000   1.0000
     1.0000   1.0000   1.0000   1.0000   1.0000   1.0000   1.0000   1.0000
     1.0000   1.0000   1.0000   1.0000   1.0000   1.0000   1.0000   1.0000
     1.0000   1.0000   1.0000   1.0000   1.0000   1.0000   1.0000   1.0000
     1.0000   1.0000   1.0000   1.0000   1.0000   1.0000   1.0000   1.0000
     1.0000   1.0000   1.0000   1.0000   1.0000   1.0000   1.0000   1.0000
     1.0000   1.0000   1.0000   1.0000   1.0000   1.0000   1.0000   1.0000
     1.0000   1.0000   1.0000   1.0000   1.0000   1.0000   1.0000   1.0000
     1.0000   1.0000   1.0000   1.0000   1.0000   1.0000   1.0000   1.0000
     1.0000   1.0000   1.0000   1.0000   1.0000   1.0000   1.0000   1.0000
     1.0000   1.0000   1.0000   1.0000   1.0000   1.0000   1.0000   1.0000
     1.0000   1.0000   1.0000   1.0000   1.0000   1.0000   1.0000   1.0000
     1.0000   1.0000   1.0000   1.0000   1.0000   1.0000   1.0000   1.0000
     1.0000   1.0000   1.0000   1.0000   1.0000   1.0000   1.0000   1.0000
     1.0000   1.0000   1.0000   1.0000   1.0000   1.0000   1.0000   1.0000
     1.0000   1.0000   1.0000   1.0000   1.0000   1.0000   1.0000   1.0000
     1.0000   1.0000   1.0000   1.0000   1.0000   1.0000   1.0000   1.0000
     1.0000   1.0000   1.0000   1.0000   1.0000   1.0000   1.0000   1.0000
     1.0000   1.0000   1.0000   1.0000   1.0000   1.0000   1.0000   1.0000
     1.0000   1.0000   1.0000   1.0000   1.0000   1.0000   1.0000   1.0000
     1.0000   1.0000   1.0000   1.0000   1.0000   1.0000   1.0000   1.0000
     1.0000   1.0000   1.0000   1.0000   1.0000   1.0000   1.0000   1.0000
     1.0000   1.0000   1.0000   1.0000   1.0000   1.0000   1.0000   1.0000
     1.0000   1.0000   1.0000   1.0000   1.0000   1.0000   1.0000   1.0000
     1.0000   1.0000   1.0000   1.0000   1.0000   1.0000   1.0000   1.0000

          k =-0.2500 0.1443-0.2273 ( 52139 PWs)   bands (ev):

   -16.7976 -16.7094 -16.5651 -16.5493 -16.5477 -16.4963 -16.4864 -16.3927
   -16.3903 -16.3709 -16.3697 -16.3566 -16.3159 -16.3148 -16.2753 -16.2451
   -16.1400 -16.0969 -16.0091 -16.0013 -15.9936 -15.9694 -15.8891 -15.8868
   -15.8763 -15.8760 -15.8078 -15.7789 -15.7393 -15.7283 -15.6435 -15.6203
   -15.4869 -15.3868 -15.3852 -15.3441 -15.3125 -15.3103 -15.3021 -15.2845
   -15.2670 -15.2394 -15.1906 -15.1699 -15.1544 -15.1199 -14.9388 -14.8137
   -14.7734 -14.7694 -14.7678 -14.7669 -14.7556 -14.7545 -14.7533 -14.7516
   -14.7482 -14.7468 -14.7466 -14.7415 -14.7365 -14.7262 -14.7250 -14.7235
   -14.7227 -14.7217 -14.7214 -14.7192 -14.7146 -14.7122 -14.7116 -14.7086
   -14.7085 -14.7064 -14.7057 -14.7010 -14.7010 -14.6916 -14.6915 -14.6902
   -14.6901 -14.6900 -14.6873 -14.6866 -14.6833 -14.6821 -14.6815 -14.6799
   -14.6791 -14.6765 -14.6753 -14.6737 -14.6687 -14.6641 -14.6585 -14.6557
    -6.6203  -6.4161  -6.1006  -6.0757  -6.0722  -6.0030  -5.9538  -5.9072
    -5.9066  -5.8811  -5.8808  -5.8699  -5.8695  -5.7429  -5.7404  -5.5345
    -5.2108  -5.1609  -5.0072  -5.0015  -4.9686  -4.8446  -4.8022  -4.8002
    -4.7485  -4.7481  -4.6255  -4.5293  -4.5250  -4.5073  -4.3518  -4.2501
    -4.0321  -3.9705  -3.9014  -3.8971  -3.8181  -3.8090  -3.8028  -3.6537
    -3.6169  -3.6147  -3.5225  -3.4104  -3.4103  -3.4061  -3.2036  -3.0849
    -3.0275  -2.9571  -2.9559  -2.9528  -2.9374  -2.9337  -2.9294  -2.9149
    -2.9141  -2.9136  -2.8797  -2.8792  -2.8695  -2.8670  -2.8399  -2.8391
    -2.8092  -2.7820  -2.7811  -2.7560  -2.7469  -2.7440  -2.7348  -2.7268
    -2.7235  -2.7082  -2.6250  -2.6166  -2.5606  -2.5428  -2.5106  -2.5065
    -2.5060  -2.4999  -2.4375  -2.4317  -2.4183  -2.4126  -2.3884  -2.3537
    -2.3210  -2.2968  -2.2832  -2.2281  -2.2244  -2.1558  -2.1541  -2.0784
    -0.8026  -0.7737  -0.7697  -0.7692  -0.7505  -0.7381  -0.7331  -0.6971
    -0.6960  -0.6938  -0.6876  -0.6826  -0.6497  -0.6408  -0.6259  -0.6251
    -0.6238  -0.5871  -0.5412  -0.5167  -0.5041  -0.4828  -0.4461  -0.4377
    -0.4371  -0.3602  -0.3591  -0.3583  -0.3547  -0.3401  -0.3387  -0.3174
    -0.2362  -0.2290  -0.2268  -0.2089  -0.1889  -0.1816  -0.1794  -0.1624
    -0.1376  -0.1360  -0.1003  -0.0685  -0.0667  -0.0268  -0.0183   0.0039
     0.0182   0.0916   0.1275   0.1598   0.1679   0.1875   0.1910   0.2055
     0.2110   0.2270   0.2272   0.2530   0.2657   0.2667   0.3431   0.4054
     0.4069   0.4176   0.4187   0.4254   0.4327   0.4521   0.4539   0.4712
     0.4713   0.4722   0.4928   0.4979   0.5034   0.5251   0.5260   0.5977
     0.6171   0.7349   0.7356   0.7681   0.7768   0.7807   0.8200   0.8241
     0.8358   0.8449   0.8511   0.8543   0.8565   0.8634   0.8715   0.9036
     0.9157   0.9242   0.9425   0.9630   0.9658   0.9854   0.9863   1.0095
     1.0226   1.0353   1.0495   1.0498   1.0781   1.0905   1.1558   1.1748
     1.1876   1.1903   1.2342   1.2348   1.2462   1.2543   1.2559   1.2707
     1.2808   1.2941   1.3053   1.3061   1.3077   1.3133   1.3525   1.3771
     1.3784   1.3831   1.4002   1.4298   1.4493   1.4847   1.4855   1.4862
     1.4863   1.4873   1.4905   1.4934   1.5055   1.5122   1.5181   1.5440
     1.6307   1.6444   1.6583   1.6903   1.7041   1.7063   1.7105   1.7343
     1.7446   1.7452   1.7479   1.7610   1.7968   1.8533   1.8535   1.8954
     1.8983   1.9215   1.9661   1.9907   2.0393   2.0707   2.0845   2.0851
     2.1031   2.1059   2.1280   2.1294   2.1542   2.1552   2.1700   2.1731
     2.2239   2.2283   2.2536   2.2577   2.2602   2.3036   2.3176   2.3263
     2.3645   2.3692   2.3783   2.3811   2.3836   2.4028   2.4036   2.4187

     occupation numbers 
     1.0000   1.0000   1.0000   1.0000   1.0000   1.0000   1.0000   1.0000
     1.0000   1.0000   1.0000   1.0000   1.0000   1.0000   1.0000   1.0000
     1.0000   1.0000   1.0000   1.0000   1.0000   1.0000   1.0000   1.0000
     1.0000   1.0000   1.0000   1.0000   1.0000   1.0000   1.0000   1.0000
     1.0000   1.0000   1.0000   1.0000   1.0000   1.0000   1.0000   1.0000
     1.0000   1.0000   1.0000   1.0000   1.0000   1.0000   1.0000   1.0000
     1.0000   1.0000   1.0000   1.0000   1.0000   1.0000   1.0000   1.0000
     1.0000   1.0000   1.0000   1.0000   1.0000   1.0000   1.0000   1.0000
     1.0000   1.0000   1.0000   1.0000   1.0000   1.0000   1.0000   1.0000
     1.0000   1.0000   1.0000   1.0000   1.0000   1.0000   1.0000   1.0000
     1.0000   1.0000   1.0000   1.0000   1.0000   1.0000   1.0000   1.0000
     1.0000   1.0000   1.0000   1.0000   1.0000   1.0000   1.0000   1.0000
     1.0000   1.0000   1.0000   1.0000   1.0000   1.0000   1.0000   1.0000
     1.0000   1.0000   1.0000   1.0000   1.0000   1.0000   1.0000   1.0000
     1.0000   1.0000   1.0000   1.0000   1.0000   1.0000   1.0000   1.0000
     1.0000   1.0000   1.0000   1.0000   1.0000   1.0000   1.0000   1.0000
     1.0000   1.0000   1.0000   1.0000   1.0000   1.0000   1.0000   1.0000
     1.0000   1.0000   1.0000   1.0000   1.0000   1.0000   1.0000   1.0000
     1.0000   1.0000   1.0000   1.0000   1.0000   1.0000   1.0000   1.0000
     1.0000   1.0000   1.0000   1.0000   1.0000   1.0000   1.0000   1.0000
     1.0000   1.0000   1.0000   1.0000   1.0000   1.0000   1.0000   1.0000
     1.0000   1.0000   1.0000   1.0000   1.0000   1.0000   1.0000   1.0000
     1.0000   1.0000   1.0000   1.0000   1.0000   1.0000   1.0000   1.0000
     1.0000   1.0000   1.0000   1.0000   1.0000   1.0000   1.0000   1.0000
     1.0000   1.0000   1.0000   1.0000   1.0000   1.0000   1.0000   1.0000
     1.0000   1.0000   1.0000   1.0000   1.0000   1.0000   1.0000   1.0000
     1.0000   1.0000   1.0000   1.0000   1.0000   1.0000   1.0000   1.0000
     1.0000   1.0000   1.0000   1.0000   1.0000   1.0000   1.0000   1.0000
     1.0000   1.0000   1.0000   1.0000   1.0000   1.0000   1.0000   1.0000
     1.0000   1.0000   1.0000   1.0000   1.0000   1.0000   1.0000   1.0000
     1.0000   1.0000   1.0000   1.0000   1.0000   1.0000   1.0000   1.0000
     1.0000   1.0000   1.0000   1.0000   1.0000   1.0000   1.0000   1.0000
     1.0000   1.0000   1.0000   1.0000   1.0000   1.0000   1.0000   1.0000
     1.0000   1.0000   1.0000   1.0000   1.0000   1.0000   1.0000   1.0000
     1.0000   1.0000   1.0000   1.0000   1.0000   1.0000   1.0000   1.0000
     1.0000   1.0000   1.0000   1.0000   1.0000   1.0000   1.0000   1.0000
     1.0000   1.0000   1.0000   1.0000   1.0000   1.0000   1.0000   1.0000
     1.0000   1.0000   1.0000   1.0000   1.0000   1.0000   1.0000   1.0000
     1.0000   1.0000   1.0000   1.0000   1.0000   1.0000   1.0000   1.0000
     1.0000   1.0000   1.0000   1.0000   1.0000   1.0000   1.0000   1.0000
     1.0000   1.0000   1.0000   1.0000   1.0000   1.0000   1.0000   1.0000
     1.0000   1.0000   1.0000   1.0000   1.0000   1.0000   1.0000   1.0000
     1.0000   1.0000   1.0000   1.0000   1.0000   1.0000   1.0000   1.0000
     1.0000   1.0000   1.0000   1.0000   1.0000   1.0000   1.0000   1.0000
     1.0000   1.0000   1.0000   1.0000   1.0000   1.0000   1.0000   1.0000
     1.0000   1.0000   1.0000   1.0000   1.0000   1.0000   1.0000   1.0000
     1.0000   1.0000   1.0000   1.0000   1.0000   1.0000   1.0000   1.0000
     1.0000   1.0000   1.0000   1.0000   1.0000   1.0000   1.0000   1.0000

     highest occupied level (ev):     2.4187

!    total energy              =   -3780.34790438 Ry
     estimated scf accuracy    <          3.6E-11 Ry

     The total energy is the sum of the following terms:
     one-electron contribution =   -1619.59710856 Ry
     hartree contribution      =    1227.42189358 Ry
     xc contribution           =   -1146.65291163 Ry
     ewald contribution        =   -2241.51977777 Ry

     convergence has been achieved in  15 iterations

     Forces acting on atoms (cartesian axes, Ry/au):

     atom    1 type  1   force =     0.00000110    0.00000000    0.00000000
     atom    2 type  1   force =     0.00000175    0.00000000    0.00000000
     atom    3 type  1   force =     0.00000095    0.00000000    0.00000000
     atom    4 type  1   force =     0.00000575    0.00000000    0.00000000
     atom    5 type  1   force =     0.00000193    0.00001059    0.00000032
     atom    6 type  1   force =     0.00000193   -0.00001059   -0.00000032
     atom    7 type  1   force =     0.00000258    0.00001239    0.00000031
     atom    8 type  1   force =     0.00000258   -0.00001239   -0.00000031
     atom    9 type  2   force =     0.00000294   -0.00001062    0.00000592
     atom   10 type  2   force =     0.00000537   -0.00000300    0.00000044
     atom   11 type  2   force =     0.00000196   -0.00001178    0.00000677
     atom   12 type  2   force =     0.00000537   -0.00000351    0.00000086
     atom   13 type  2   force =     0.00000149   -0.00001375    0.00000811
     atom   14 type  2   force =     0.00000719    0.00000038   -0.00000176
     atom   15 type  2   force =     0.00000076   -0.00001503    0.00000903
     atom   16 type  2   force =     0.00000710    0.00000092   -0.00000214
     atom   17 type  2   force =     0.00000649   -0.00001289   -0.00001223
     atom   18 type  2   force =     0.00001001   -0.00000680   -0.00000761
     atom   19 type  2   force =     0.00000668   -0.00001285   -0.00001201
     atom   20 type  2   force =     0.00000831   -0.00000866   -0.00000936
     atom   21 type  2   force =     0.00000415   -0.00001676   -0.00001481
     atom   22 type  2   force =     0.00001121   -0.00000432   -0.00000627
     atom   23 type  2   force =     0.00000460   -0.00001612   -0.00001423
     atom   24 type  2   force =     0.00001115   -0.00000504   -0.00000635
     atom   25 type  1   force =    -0.00000659    0.00000442   -0.00000134
     atom   26 type  1   force =    -0.00000960   -0.00000844    0.00000106
     atom   27 type  1   force =    -0.00000618    0.00000478   -0.00000165
     atom   28 type  1   force =    -0.00000631   -0.00000811    0.00000069
     atom   29 type  1   force =    -0.00000684    0.00000653    0.00000027
     atom   30 type  1   force =    -0.00000833   -0.00000927   -0.00000092
     atom   31 type  1   force =    -0.00000432    0.00000593    0.00000037
     atom   32 type  1   force =    -0.00000874   -0.00000847   -0.00000089
     atom   33 type  2   force =    -0.00000575   -0.00000630    0.00001455
     atom   34 type  2   force =    -0.00000451   -0.00000444    0.00001621
     atom   35 type  2   force =    -0.00000498   -0.00000625    0.00001514
     atom   36 type  2   force =    -0.00000373   -0.00000476    0.00001652
     atom   37 type  2   force =    -0.00000426   -0.00000639    0.00001554
     atom   38 type  2   force =    -0.00000403   -0.00000453    0.00001641
     atom   39 type  2   force =    -0.00000756   -0.00000662    0.00001340
     atom   40 type  2   force =    -0.00000407   -0.00000459    0.00001638
     atom   41 type  2   force =    -0.00000637    0.00000470   -0.00001439
     atom   42 type  2   force =    -0.00000829    0.00000679   -0.00001215
     atom   43 type  2   force =    -0.00000617    0.00000492   -0.00001444
     atom   44 type  2   force =    -0.00000766    0.00000644   -0.00001286
     atom   45 type  2   force =    -0.00000671    0.00000471   -0.00001420
     atom   46 type  2   force =    -0.00000599    0.00000673   -0.00001375
     atom   47 type  2   force =    -0.00000657    0.00000499   -0.00001407
     atom   48 type  2   force =    -0.00000970    0.00000709   -0.00001127
     atom   49 type  1   force =    -0.00000891    0.00000865   -0.00000465
     atom   50 type  1   force =    -0.00000630   -0.00000429   -0.00000272
     atom   51 type  1   force =    -0.00000611    0.00000820   -0.00000380
     atom   52 type  1   force =    -0.00000541   -0.00000523   -0.00000212
     atom   53 type  1   force =    -0.00000768    0.00000854   -0.00000269
     atom   54 type  1   force =    -0.00000637   -0.00000723   -0.00000348
     atom   55 type  1   force =    -0.00000791    0.00000759   -0.00000348
     atom   56 type  1   force =    -0.00000341   -0.00000728   -0.00000374
     atom   57 type  2   force =     0.00000946    0.00000769    0.00000855
     atom   58 type  2   force =     0.00000602    0.00001361    0.00001304
     atom   59 type  2   force =     0.00000778    0.00000935    0.00001029
     atom   60 type  2   force =     0.00000597    0.00001397    0.00001311
     atom   61 type  2   force =     0.00001047    0.00000545    0.00000742
     atom   62 type  2   force =     0.00000316    0.00001825    0.00001633
     atom   63 type  2   force =     0.00000997    0.00000656    0.00000809
     atom   64 type  2   force =     0.00000353    0.00001787    0.00001580
     atom   65 type  2   force =     0.00000555    0.00000198    0.00000069
     atom   66 type  2   force =     0.00000334    0.00000956   -0.00000491
     atom   67 type  2   force =     0.00000572    0.00000204    0.00000058
     atom   68 type  2   force =     0.00000221    0.00001121   -0.00000615
     atom   69 type  2   force =     0.00000781   -0.00000238    0.00000356
     atom   70 type  2   force =     0.00000195    0.00001206   -0.00000649
     atom   71 type  2   force =     0.00000779   -0.00000238    0.00000343
     atom   72 type  2   force =     0.00000086    0.00001392   -0.00000785
     atom   73 type  1   force =     0.00000102    0.00000000    0.00000000
     atom   74 type  1   force =     0.00000181    0.00000000    0.00000000
     atom   75 type  1   force =     0.00000088    0.00000000    0.00000000
     atom   76 type  1   force =     0.00000615    0.00000000    0.00000000
     atom   77 type  1   force =     0.00000189    0.00001092    0.00000015
     atom   78 type  1   force =     0.00000189   -0.00001092   -0.00000015
     atom   79 type  1   force =     0.00000286    0.00001295    0.00000042
     atom   80 type  1   force =     0.00000286   -0.00001295   -0.00000042
     atom   81 type  2   force =     0.00000334   -0.00000956    0.00000491
     atom   82 type  2   force =     0.00000555   -0.00000198   -0.00000069
     atom   83 type  2   force =     0.00000221   -0.00001121    0.00000615
     atom   84 type  2   force =     0.00000572   -0.00000204   -0.00000058
     atom   85 type  2   force =     0.00000195   -0.00001206    0.00000649
     atom   86 type  2   force =     0.00000781    0.00000238   -0.00000356
     atom   87 type  2   force =     0.00000086   -0.00001392    0.00000785
     atom   88 type  2   force =     0.00000779    0.00000238   -0.00000343
     atom   89 type  2   force =     0.00000602   -0.00001361   -0.00001304
     atom   90 type  2   force =     0.00000946   -0.00000769   -0.00000855
     atom   91 type  2   force =     0.00000597   -0.00001397   -0.00001311
     atom   92 type  2   force =     0.00000778   -0.00000935   -0.00001029
     atom   93 type  2   force =     0.00000316   -0.00001825   -0.00001633
     atom   94 type  2   force =     0.00001047   -0.00000545   -0.00000742
     atom   95 type  2   force =     0.00000353   -0.00001787   -0.00001580
     atom   96 type  2   force =     0.00000997   -0.00000656   -0.00000809
     atom   97 type  1   force =    -0.00000630    0.00000429    0.00000272
     atom   98 type  1   force =    -0.00000891   -0.00000865    0.00000465
     atom   99 type  1   force =    -0.00000541    0.00000523    0.00000212
     atom  100 type  1   force =    -0.00000611   -0.00000820    0.00000380
     atom  101 type  1   force =    -0.00000637    0.00000723    0.00000348
     atom  102 type  1   force =    -0.00000768   -0.00000854    0.00000269
     atom  103 type  1   force =    -0.00000341    0.00000728    0.00000374
     atom  104 type  1   force =    -0.00000791   -0.00000759    0.00000348
     atom  105 type  2   force =    -0.00000829   -0.00000679    0.00001215
     atom  106 type  2   force =    -0.00000637   -0.00000470    0.00001439
     atom  107 type  2   force =    -0.00000766   -0.00000644    0.00001286
     atom  108 type  2   force =    -0.00000617   -0.00000492    0.00001444
     atom  109 type  2   force =    -0.00000599   -0.00000673    0.00001375
     atom  110 type  2   force =    -0.00000671   -0.00000471    0.00001420
     atom  111 type  2   force =    -0.00000970   -0.00000709    0.00001127
     atom  112 type  2   force =    -0.00000657   -0.00000499    0.00001407
     atom  113 type  2   force =    -0.00000451    0.00000444   -0.00001621
     atom  114 type  2   force =    -0.00000575    0.00000630   -0.00001455
     atom  115 type  2   force =    -0.00000373    0.00000476   -0.00001652
     atom  116 type  2   force =    -0.00000498    0.00000625   -0.00001514
     atom  117 type  2   force =    -0.00000403    0.00000453   -0.00001641
     atom  118 type  2   force =    -0.00000426    0.00000639   -0.00001554
     atom  119 type  2   force =    -0.00000407    0.00000459   -0.00001638
     atom  120 type  2   force =    -0.00000756    0.00000662   -0.00001340
     atom  121 type  1   force =    -0.00000960    0.00000844   -0.00000106
     atom  122 type  1   force =    -0.00000659   -0.00000442    0.00000134
     atom  123 type  1   force =    -0.00000631    0.00000811   -0.00000069
     atom  124 type  1   force =    -0.00000618   -0.00000478    0.00000165
     atom  125 type  1   force =    -0.00000833    0.00000927    0.00000092
     atom  126 type  1   force =    -0.00000684   -0.00000653   -0.00000027
     atom  127 type  1   force =    -0.00000874    0.00000847    0.00000089
     atom  128 type  1   force =    -0.00000432   -0.00000593   -0.00000037
     atom  129 type  2   force =     0.00001001    0.00000680    0.00000761
     atom  130 type  2   force =     0.00000649    0.00001289    0.00001223
     atom  131 type  2   force =     0.00000831    0.00000866    0.00000936
     atom  132 type  2   force =     0.00000668    0.00001285    0.00001201
     atom  133 type  2   force =     0.00001121    0.00000432    0.00000627
     atom  134 type  2   force =     0.00000415    0.00001676    0.00001481
     atom  135 type  2   force =     0.00001115    0.00000504    0.00000635
     atom  136 type  2   force =     0.00000460    0.00001612    0.00001423
     atom  137 type  2   force =     0.00000537    0.00000300   -0.00000044
     atom  138 type  2   force =     0.00000294    0.00001062   -0.00000592
     atom  139 type  2   force =     0.00000537    0.00000351   -0.00000086
     atom  140 type  2   force =     0.00000196    0.00001178   -0.00000677
     atom  141 type  2   force =     0.00000719   -0.00000038    0.00000176
     atom  142 type  2   force =     0.00000149    0.00001375   -0.00000811
     atom  143 type  2   force =     0.00000710   -0.00000092    0.00000214
     atom  144 type  2   force =     0.00000076    0.00001503   -0.00000903
     The non-local contrib.  to forces
     atom    1 type  1   force =    -0.00663039    0.00000000    0.00000000
     atom    2 type  1   force =    -0.00663010    0.00000000    0.00000000
     atom    3 type  1   force =    -0.00662953    0.00000000    0.00000000
     atom    4 type  1   force =    -0.00662421    0.00000000    0.00000000
     atom    5 type  1   force =    -0.00662858    0.00001558    0.00000209
     atom    6 type  1   force =    -0.00662858   -0.00001558   -0.00000209
     atom    7 type  1   force =    -0.00662825    0.00001837    0.00000254
     atom    8 type  1   force =    -0.00662825   -0.00001837   -0.00000254
     atom    9 type  2   force =     0.86613690    0.03932898    0.50151701
     atom   10 type  2   force =     0.86613804    0.03933918    0.50151810
     atom   11 type  2   force =     0.86613375    0.03932944    0.50151703
     atom   12 type  2   force =     0.86613845    0.03933840    0.50151803
     atom   13 type  2   force =     0.86613859    0.03932703    0.50151639
     atom   14 type  2   force =     0.86613727    0.03934174    0.50151915
     atom   15 type  2   force =     0.86613764    0.03932624    0.50151666
     atom   16 type  2   force =     0.86613435    0.03934305    0.50151881
     atom   17 type  2   force =    -0.38964904    0.76207197   -0.49998794
     atom   18 type  2   force =    -0.38964759    0.76207596   -0.49998637
     atom   19 type  2   force =    -0.38964843    0.76207198   -0.49998745
     atom   20 type  2   force =    -0.38965110    0.76207582   -0.49998613
     atom   21 type  2   force =    -0.38964800    0.76206416   -0.49998476
     atom   22 type  2   force =    -0.38965014    0.76208321   -0.49998901
     atom   23 type  2   force =    -0.38964812    0.76206581   -0.49998509
     atom   24 type  2   force =    -0.38964915    0.76208146   -0.49998855
     atom   25 type  1   force =     0.00571972   -0.00905517    0.00145978
     atom   26 type  1   force =     0.00571446   -0.00907251    0.00146709
     atom   27 type  1   force =     0.00571993   -0.00905460    0.00145945
     atom   28 type  1   force =     0.00571906   -0.00907162    0.00146611
     atom   29 type  1   force =     0.00571979   -0.00905275    0.00146361
     atom   30 type  1   force =     0.00571623   -0.00907263    0.00146253
     atom   31 type  1   force =     0.00572282   -0.00905331    0.00146352
     atom   32 type  1   force =     0.00571578   -0.00907254    0.00146228
     atom   33 type  2   force =    -0.47411653    0.71335235    0.51438888
     atom   34 type  2   force =    -0.47411614    0.71336704    0.51438914
     atom   35 type  2   force =    -0.47411601    0.71335244    0.51438898
     atom   36 type  2   force =    -0.47411669    0.71336687    0.51438958
     atom   37 type  2   force =    -0.47411464    0.71334991    0.51438812
     atom   38 type  2   force =    -0.47411657    0.71336781    0.51439017
     atom   39 type  2   force =    -0.47411759    0.71335027    0.51438798
     atom   40 type  2   force =    -0.47411651    0.71336782    0.51439020
     atom   41 type  2   force =    -0.47411531   -0.71336709   -0.51438602
     atom   42 type  2   force =    -0.47411607   -0.71335208   -0.51438459
     atom   43 type  2   force =    -0.47411629   -0.71336718   -0.51438617
     atom   44 type  2   force =    -0.47411549   -0.71335332   -0.51438479
     atom   45 type  2   force =    -0.47411629   -0.71336781   -0.51438642
     atom   46 type  2   force =    -0.47411380   -0.71334958   -0.51438457
     atom   47 type  2   force =    -0.47411601   -0.71336761   -0.51438616
     atom   48 type  2   force =    -0.47411736   -0.71334945   -0.51438466
     atom   49 type  1   force =     0.00571622    0.00907260   -0.00147165
     atom   50 type  1   force =     0.00572037    0.00905523   -0.00146558
     atom   51 type  1   force =     0.00572018    0.00907163   -0.00147030
     atom   52 type  1   force =     0.00572195    0.00905359   -0.00146440
     atom   53 type  1   force =     0.00571762    0.00907118   -0.00146693
     atom   54 type  1   force =     0.00572095    0.00905174   -0.00146816
     atom   55 type  1   force =     0.00571759    0.00907037   -0.00146842
     atom   56 type  1   force =     0.00572478    0.00905126   -0.00146848
     atom   57 type  2   force =    -0.38964737   -0.76207621    0.49998899
     atom   58 type  2   force =    -0.38964872   -0.76207242    0.49999026
     atom   59 type  2   force =    -0.38965083   -0.76207614    0.49998854
     atom   60 type  2   force =    -0.38964844   -0.76207229    0.49998986
     atom   61 type  2   force =    -0.38965066   -0.76208401    0.49999173
     atom   62 type  2   force =    -0.38964816   -0.76206405    0.49998726
     atom   63 type  2   force =    -0.38964987   -0.76208221    0.49999185
     atom   64 type  2   force =    -0.38964856   -0.76206575    0.49998730
     atom   65 type  2   force =     0.86613767   -0.03933881   -0.50151642
     atom   66 type  2   force =     0.86613703   -0.03932865   -0.50151576
     atom   67 type  2   force =     0.86613834   -0.03933804   -0.50151602
     atom   68 type  2   force =     0.86613404   -0.03932864   -0.50151599
     atom   69 type  2   force =     0.86613751   -0.03934215   -0.50151738
     atom   70 type  2   force =     0.86613848   -0.03932729   -0.50151516
     atom   71 type  2   force =     0.86613508   -0.03934328   -0.50151747
     atom   72 type  2   force =     0.86613723   -0.03932608   -0.50151515
     atom   73 type  1   force =    -0.00663137    0.00000000    0.00000000
     atom   74 type  1   force =    -0.00663018    0.00000000    0.00000000
     atom   75 type  1   force =    -0.00663039    0.00000000    0.00000000
     atom   76 type  1   force =    -0.00662397    0.00000000    0.00000000
     atom   77 type  1   force =    -0.00662938    0.00001650    0.00000230
     atom   78 type  1   force =    -0.00662938   -0.00001650   -0.00000230
     atom   79 type  1   force =    -0.00662833    0.00001898    0.00000308
     atom   80 type  1   force =    -0.00662833   -0.00001898   -0.00000308
     atom   81 type  2   force =     0.86613703    0.03932865    0.50151576
     atom   82 type  2   force =     0.86613767    0.03933881    0.50151642
     atom   83 type  2   force =     0.86613404    0.03932864    0.50151599
     atom   84 type  2   force =     0.86613834    0.03933804    0.50151602
     atom   85 type  2   force =     0.86613848    0.03932729    0.50151516
     atom   86 type  2   force =     0.86613751    0.03934215    0.50151738
     atom   87 type  2   force =     0.86613723    0.03932608    0.50151515
     atom   88 type  2   force =     0.86613508    0.03934328    0.50151747
     atom   89 type  2   force =    -0.38964872    0.76207242   -0.49999026
     atom   90 type  2   force =    -0.38964737    0.76207621   -0.49998899
     atom   91 type  2   force =    -0.38964844    0.76207229   -0.49998986
     atom   92 type  2   force =    -0.38965083    0.76207614   -0.49998854
     atom   93 type  2   force =    -0.38964816    0.76206405   -0.49998726
     atom   94 type  2   force =    -0.38965066    0.76208401   -0.49999173
     atom   95 type  2   force =    -0.38964856    0.76206575   -0.49998730
     atom   96 type  2   force =    -0.38964987    0.76208221   -0.49999185
     atom   97 type  1   force =     0.00572037   -0.00905523    0.00146558
     atom   98 type  1   force =     0.00571622   -0.00907260    0.00147165
     atom   99 type  1   force =     0.00572195   -0.00905359    0.00146440
     atom  100 type  1   force =     0.00572018   -0.00907163    0.00147030
     atom  101 type  1   force =     0.00572095   -0.00905174    0.00146816
     atom  102 type  1   force =     0.00571762   -0.00907118    0.00146693
     atom  103 type  1   force =     0.00572478   -0.00905126    0.00146848
     atom  104 type  1   force =     0.00571759   -0.00907037    0.00146842
     atom  105 type  2   force =    -0.47411607    0.71335208    0.51438459
     atom  106 type  2   force =    -0.47411531    0.71336709    0.51438602
     atom  107 type  2   force =    -0.47411549    0.71335332    0.51438479
     atom  108 type  2   force =    -0.47411629    0.71336718    0.51438617
     atom  109 type  2   force =    -0.47411380    0.71334958    0.51438457
     atom  110 type  2   force =    -0.47411629    0.71336781    0.51438642
     atom  111 type  2   force =    -0.47411736    0.71334945    0.51438466
     atom  112 type  2   force =    -0.47411601    0.71336761    0.51438616
     atom  113 type  2   force =    -0.47411614   -0.71336704   -0.51438914
     atom  114 type  2   force =    -0.47411653   -0.71335235   -0.51438888
     atom  115 type  2   force =    -0.47411669   -0.71336687   -0.51438958
     atom  116 type  2   force =    -0.47411601   -0.71335244   -0.51438898
     atom  117 type  2   force =    -0.47411657   -0.71336781   -0.51439017
     atom  118 type  2   force =    -0.47411464   -0.71334991   -0.51438812
     atom  119 type  2   force =    -0.47411651   -0.71336782   -0.51439020
     atom  120 type  2   force =    -0.47411759   -0.71335027   -0.51438798
     atom  121 type  1   force =     0.00571446    0.00907251   -0.00146709
     atom  122 type  1   force =     0.00571972    0.00905517   -0.00145978
     atom  123 type  1   force =     0.00571906    0.00907162   -0.00146611
     atom  124 type  1   force =     0.00571993    0.00905460   -0.00145945
     atom  125 type  1   force =     0.00571623    0.00907263   -0.00146253
     atom  126 type  1   force =     0.00571979    0.00905275   -0.00146361
     atom  127 type  1   force =     0.00571578    0.00907254   -0.00146228
     atom  128 type  1   force =     0.00572282    0.00905331   -0.00146352
     atom  129 type  2   force =    -0.38964759   -0.76207596    0.49998637
     atom  130 type  2   force =    -0.38964904   -0.76207197    0.49998794
     atom  131 type  2   force =    -0.38965110   -0.76207582    0.49998613
     atom  132 type  2   force =    -0.38964843   -0.76207198    0.49998745
     atom  133 type  2   force =    -0.38965014   -0.76208321    0.49998901
     atom  134 type  2   force =    -0.38964800   -0.76206416    0.49998476
     atom  135 type  2   force =    -0.38964915   -0.76208146    0.49998855
     atom  136 type  2   force =    -0.38964812   -0.76206581    0.49998509
     atom  137 type  2   force =     0.86613804   -0.03933918   -0.50151810
     atom  138 type  2   force =     0.86613690   -0.03932898   -0.50151701
     atom  139 type  2   force =     0.86613845   -0.03933840   -0.50151803
     atom  140 type  2   force =     0.86613375   -0.03932944   -0.50151703
     atom  141 type  2   force =     0.86613727   -0.03934174   -0.50151915
     atom  142 type  2   force =     0.86613859   -0.03932703   -0.50151639
     atom  143 type  2   force =     0.86613435   -0.03934305   -0.50151881
     atom  144 type  2   force =     0.86613764   -0.03932624   -0.50151666
     The ionic contribution  to forces
     atom    1 type  1   force =    -0.05878098   -0.00000013    0.00000000
     atom    2 type  1   force =    -0.05877796    0.00000039   -0.00000023
     atom    3 type  1   force =    -0.05877958   -0.00000013    0.00000000
     atom    4 type  1   force =    -0.05876364    0.00000039   -0.00000023
     atom    5 type  1   force =    -0.05877711    0.00002670    0.00000898
     atom    6 type  1   force =    -0.05877670   -0.00002696   -0.00000875
     atom    7 type  1   force =    -0.05877570    0.00003169    0.00000953
     atom    8 type  1   force =    -0.05877529   -0.00003196   -0.00000931
     atom    9 type  2   force =    -3.50730459    0.25439828   -1.68808647
     atom   10 type  2   force =    -3.50728286    0.25444549   -1.68813465
     atom   11 type  2   force =    -3.50730180    0.25438734   -1.68807881
     atom   12 type  2   force =    -3.50728294    0.25444243   -1.68813082
     atom   13 type  2   force =    -3.50731404    0.25438190   -1.68807291
     atom   14 type  2   force =    -3.50727103    0.25446225   -1.68814877
     atom   15 type  2   force =    -3.50731780    0.25437466   -1.68806682
     atom   16 type  2   force =    -3.50726551    0.25446386   -1.68815320
     atom   17 type  2   force =     1.95202710   -2.89505511    1.69835913
     atom   18 type  2   force =     1.95205398   -2.89502119    1.69840280
     atom   19 type  2   force =     1.95202808   -2.89505308    1.69835998
     atom   20 type  2   force =     1.95204975   -2.89503634    1.69838756
     atom   21 type  2   force =     1.95200953   -2.89507662    1.69834228
     atom   22 type  2   force =     1.95206488   -2.89501040    1.69840721
     atom   23 type  2   force =     1.95201559   -2.89507334    1.69834757
     atom   24 type  2   force =     1.95206362   -2.89501045    1.69840498
     atom   25 type  1   force =     0.03786157   -0.06856554    0.00675204
     atom   26 type  1   force =     0.03785457   -0.06859784    0.00677213
     atom   27 type  1   force =     0.03786279   -0.06856432    0.00675020
     atom   28 type  1   force =     0.03786452   -0.06859601    0.00676992
     atom   29 type  1   force =     0.03786259   -0.06856009    0.00676210
     atom   30 type  1   force =     0.03785725   -0.06859873    0.00676081
     atom   31 type  1   force =     0.03787025   -0.06856226    0.00676096
     atom   32 type  1   force =     0.03785740   -0.06859647    0.00676147
     atom   33 type  2   force =     1.54678102   -3.12016363   -1.73566020
     atom   34 type  2   force =     1.54679131   -3.12017830   -1.73564276
     atom   35 type  2   force =     1.54678717   -3.12016320   -1.73565577
     atom   36 type  2   force =     1.54679759   -3.12017862   -1.73564006
     atom   37 type  2   force =     1.54679036   -3.12016276   -1.73565159
     atom   38 type  2   force =     1.54679350   -3.12017513   -1.73564203
     atom   39 type  2   force =     1.54677147   -3.12016675   -1.73566943
     atom   40 type  2   force =     1.54679360   -3.12017594   -1.73564067
     atom   41 type  2   force =     1.54677557    3.12018032    1.73565285
     atom   42 type  2   force =     1.54675888    3.12016458    1.73567184
     atom   43 type  2   force =     1.54677775    3.12018070    1.73565092
     atom   44 type  2   force =     1.54676528    3.12016608    1.73566814
     atom   45 type  2   force =     1.54677248    3.12017588    1.73565571
     atom   46 type  2   force =     1.54677572    3.12016400    1.73565996
     atom   47 type  2   force =     1.54677298    3.12017571    1.73565314
     atom   48 type  2   force =     1.54675358    3.12016727    1.73568076
     atom   49 type  1   force =     0.03785955    0.06859747   -0.00678195
     atom   50 type  1   force =     0.03786520    0.06856548   -0.00676231
     atom   51 type  1   force =     0.03786741    0.06859560   -0.00677766
     atom   52 type  1   force =     0.03786666    0.06856138   -0.00676040
     atom   53 type  1   force =     0.03786120    0.06859614   -0.00677024
     atom   54 type  1   force =     0.03786460    0.06855763   -0.00676979
     atom   55 type  1   force =     0.03786068    0.06859243   -0.00677170
     atom   56 type  1   force =     0.03787511    0.06855748   -0.00676966
     atom   57 type  2   force =     1.95204885    2.89502978   -1.69839755
     atom   58 type  2   force =     1.95202385    2.89505997   -1.69835486
     atom   59 type  2   force =     1.95204613    2.89504376   -1.69838150
     atom   60 type  2   force =     1.95202246    2.89506059   -1.69835359
     atom   61 type  2   force =     1.95206174    2.89502052   -1.69839967
     atom   62 type  2   force =     1.95200199    2.89508701   -1.69833325
     atom   63 type  2   force =     1.95205557    2.89502384   -1.69839431
     atom   64 type  2   force =     1.95200843    2.89508587   -1.69833740
     atom   65 type  2   force =    -3.50727883   -0.25445452    1.68813869
     atom   66 type  2   force =    -3.50730158   -0.25440822    1.68809288
     atom   67 type  2   force =    -3.50727873   -0.25445617    1.68813759
     atom   68 type  2   force =    -3.50729846   -0.25439396    1.68808122
     atom   69 type  2   force =    -3.50726387   -0.25447943    1.68815957
     atom   70 type  2   force =    -3.50730808   -0.25439515    1.68808108
     atom   71 type  2   force =    -3.50726054   -0.25447580    1.68816250
     atom   72 type  2   force =    -3.50731378   -0.25438370    1.68806952
     atom   73 type  1   force =    -0.05878121   -0.00000013    0.00000000
     atom   74 type  1   force =    -0.05877790    0.00000039   -0.00000023
     atom   75 type  1   force =    -0.05878155   -0.00000013    0.00000000
     atom   76 type  1   force =    -0.05876116    0.00000039   -0.00000023
     atom   77 type  1   force =    -0.05877770    0.00002757    0.00000903
     atom   78 type  1   force =    -0.05877730   -0.00002783   -0.00000880
     atom   79 type  1   force =    -0.05877500    0.00003409    0.00001083
     atom   80 type  1   force =    -0.05877460   -0.00003435   -0.00001061
     atom   81 type  2   force =    -3.50730211    0.25440797   -1.68809217
     atom   82 type  2   force =    -3.50727877    0.25445433   -1.68813866
     atom   83 type  2   force =    -3.50729899    0.25439372   -1.68808051
     atom   84 type  2   force =    -3.50727867    0.25445598   -1.68813756
     atom   85 type  2   force =    -3.50730755    0.25439606   -1.68808194
     atom   86 type  2   force =    -3.50726393    0.25447896   -1.68815946
     atom   87 type  2   force =    -3.50731326    0.25438461   -1.68807039
     atom   88 type  2   force =    -3.50726060    0.25447533   -1.68816239
     atom   89 type  2   force =     1.95202382   -2.89506051    1.69835482
     atom   90 type  2   force =     1.95204926   -2.89502868    1.69839792
     atom   91 type  2   force =     1.95202243   -2.89506113    1.69835355
     atom   92 type  2   force =     1.95204654   -2.89504266    1.69838187
     atom   93 type  2   force =     1.95200164   -2.89508760    1.69833294
     atom   94 type  2   force =     1.95206172   -2.89502050    1.69839965
     atom   95 type  2   force =     1.95200808   -2.89508646    1.69833710
     atom   96 type  2   force =     1.95205555   -2.89502382    1.69839428
     atom   97 type  1   force =     0.03786535   -0.06856552    0.00676256
     atom   98 type  1   force =     0.03785927   -0.06859790    0.00678162
     atom   99 type  1   force =     0.03786681   -0.06856142    0.00676065
     atom  100 type  1   force =     0.03786713   -0.06859603    0.00677733
     atom  101 type  1   force =     0.03786462   -0.06855740    0.00676982
     atom  102 type  1   force =     0.03786132   -0.06859591    0.00677029
     atom  103 type  1   force =     0.03787513   -0.06855725    0.00676970
     atom  104 type  1   force =     0.03786080   -0.06859220    0.00677175
     atom  105 type  2   force =     1.54675894   -3.12016461   -1.73567178
     atom  106 type  2   force =     1.54677534   -3.12018012   -1.73565312
[...]
     atom   79 type  1   force =     0.00000000    0.00000000    0.00000000
     atom   80 type  1   force =     0.00000000    0.00000000    0.00000000
     atom   81 type  2   force =     0.00000000    0.00000000    0.00000000
     atom   82 type  2   force =     0.00000000    0.00000000    0.00000000
     atom   83 type  2   force =     0.00000000    0.00000000    0.00000000
     atom   84 type  2   force =     0.00000000    0.00000000    0.00000000
     atom   85 type  2   force =     0.00000000    0.00000000    0.00000000
     atom   86 type  2   force =     0.00000000    0.00000000    0.00000000
     atom   87 type  2   force =     0.00000000    0.00000000    0.00000000
     atom   88 type  2   force =     0.00000000    0.00000000    0.00000000
     atom   89 type  2   force =     0.00000000    0.00000000    0.00000000
     atom   90 type  2   force =     0.00000000    0.00000000    0.00000000
     atom   91 type  2   force =     0.00000000    0.00000000    0.00000000
     atom   92 type  2   force =     0.00000000    0.00000000    0.00000000
     atom   93 type  2   force =     0.00000000    0.00000000    0.00000000
     atom   94 type  2   force =     0.00000000    0.00000000    0.00000000
     atom   95 type  2   force =     0.00000000    0.00000000    0.00000000
     atom   96 type  2   force =     0.00000000    0.00000000    0.00000000
     atom   97 type  1   force =     0.00000000    0.00000000    0.00000000
     atom   98 type  1   force =     0.00000000    0.00000000    0.00000000
     atom   99 type  1   force =     0.00000000    0.00000000    0.00000000
     atom  100 type  1   force =     0.00000000    0.00000000    0.00000000
     atom  101 type  1   force =     0.00000000    0.00000000    0.00000000
     atom  102 type  1   force =     0.00000000    0.00000000    0.00000000
     atom  103 type  1   force =     0.00000000    0.00000000    0.00000000
     atom  104 type  1   force =     0.00000000    0.00000000    0.00000000
     atom  105 type  2   force =     0.00000000    0.00000000    0.00000000
     atom  106 type  2   force =     0.00000000    0.00000000    0.00000000
     atom  107 type  2   force =     0.00000000    0.00000000    0.00000000
     atom  108 type  2   force =     0.00000000    0.00000000    0.00000000
     atom  109 type  2   force =     0.00000000    0.00000000    0.00000000
     atom  110 type  2   force =     0.00000000    0.00000000    0.00000000
     atom  111 type  2   force =     0.00000000    0.00000000    0.00000000
     atom  112 type  2   force =     0.00000000    0.00000000    0.00000000
     atom  113 type  2   force =     0.00000000    0.00000000    0.00000000
     atom  114 type  2   force =     0.00000000    0.00000000    0.00000000
     atom  115 type  2   force =     0.00000000    0.00000000    0.00000000
     atom  116 type  2   force =     0.00000000    0.00000000    0.00000000
     atom  117 type  2   force =     0.00000000    0.00000000    0.00000000
     atom  118 type  2   force =     0.00000000    0.00000000    0.00000000
     atom  119 type  2   force =     0.00000000    0.00000000    0.00000000
     atom  120 type  2   force =     0.00000000    0.00000000    0.00000000
     atom  121 type  1   force =     0.00000000    0.00000000    0.00000000
     atom  122 type  1   force =     0.00000000    0.00000000    0.00000000
     atom  123 type  1   force =     0.00000000    0.00000000    0.00000000
     atom  124 type  1   force =     0.00000000    0.00000000    0.00000000
     atom  125 type  1   force =     0.00000000    0.00000000    0.00000000
     atom  126 type  1   force =     0.00000000    0.00000000    0.00000000
     atom  127 type  1   force =     0.00000000    0.00000000    0.00000000
     atom  128 type  1   force =     0.00000000    0.00000000    0.00000000
     atom  129 type  2   force =     0.00000000    0.00000000    0.00000000
     atom  130 type  2   force =     0.00000000    0.00000000    0.00000000
     atom  131 type  2   force =     0.00000000    0.00000000    0.00000000
     atom  132 type  2   force =     0.00000000    0.00000000    0.00000000
     atom  133 type  2   force =     0.00000000    0.00000000    0.00000000
     atom  134 type  2   force =     0.00000000    0.00000000    0.00000000
     atom  135 type  2   force =     0.00000000    0.00000000    0.00000000
     atom  136 type  2   force =     0.00000000    0.00000000    0.00000000
     atom  137 type  2   force =     0.00000000    0.00000000    0.00000000
     atom  138 type  2   force =     0.00000000    0.00000000    0.00000000
     atom  139 type  2   force =     0.00000000    0.00000000    0.00000000
     atom  140 type  2   force =     0.00000000    0.00000000    0.00000000
     atom  141 type  2   force =     0.00000000    0.00000000    0.00000000
     atom  142 type  2   force =     0.00000000    0.00000000    0.00000000
     atom  143 type  2   force =     0.00000000    0.00000000    0.00000000
     atom  144 type  2   force =     0.00000000    0.00000000    0.00000000
     The SCF correction term to forces
     atom    1 type  1   force =     0.00000029   -0.00000000    0.00000000
     atom    2 type  1   force =     0.00000040    0.00000000   -0.00000000
     atom    3 type  1   force =    -0.00000066   -0.00000000    0.00000000
     atom    4 type  1   force =    -0.00000003    0.00000000   -0.00000000
     atom    5 type  1   force =    -0.00000076    0.00000013    0.00000063
     atom    6 type  1   force =    -0.00000076   -0.00000013   -0.00000063
     atom    7 type  1   force =     0.00000004   -0.00000020    0.00000019
     atom    8 type  1   force =     0.00000004    0.00000020   -0.00000019
     atom    9 type  2   force =     0.00000005   -0.00000022   -0.00000025
     atom   10 type  2   force =    -0.00000006   -0.00000022   -0.00000048
     atom   11 type  2   force =    -0.00000036   -0.00000005   -0.00000021
     atom   12 type  2   force =    -0.00000080    0.00000007   -0.00000052
     atom   13 type  2   force =    -0.00000040   -0.00000011   -0.00000025
     atom   14 type  2   force =    -0.00000072    0.00000015   -0.00000076
     atom   15 type  2   force =    -0.00000022    0.00000015   -0.00000038
     atom   16 type  2   force =    -0.00000011    0.00000035   -0.00000067
     atom   17 type  2   force =     0.00000045   -0.00000020    0.00000016
     atom   18 type  2   force =     0.00000013   -0.00000041    0.00000004
     atom   19 type  2   force =    -0.00000033   -0.00000022   -0.00000006
     atom   20 type  2   force =    -0.00000008   -0.00000054    0.00000017
     atom   21 type  2   force =     0.00000021   -0.00000086    0.00000022
     atom   22 type  2   force =     0.00000015   -0.00000053   -0.00000015
     atom   23 type  2   force =    -0.00000010   -0.00000063    0.00000031
     atom   24 type  2   force =    -0.00000078    0.00000082   -0.00000069
     atom   25 type  1   force =    -0.00000018    0.00000019    0.00000005
     atom   26 type  1   force =     0.00000004    0.00000004   -0.00000035
     atom   27 type  1   force =     0.00000022    0.00000028   -0.00000032
     atom   28 type  1   force =     0.00000024   -0.00000007   -0.00000015
     atom   29 type  1   force =     0.00000009   -0.00000043    0.00000013
     atom   30 type  1   force =     0.00000014   -0.00000022   -0.00000031
     atom   31 type  1   force =     0.00000009   -0.00000014    0.00000020
     atom   32 type  1   force =     0.00000001    0.00000098    0.00000013
     atom   33 type  2   force =     0.00000060    0.00000003   -0.00000072
     atom   34 type  2   force =     0.00000044   -0.00000032   -0.00000040
     atom   35 type  2   force =    -0.00000010   -0.00000031   -0.00000047
     atom   36 type  2   force =     0.00000012   -0.00000055   -0.00000033
     atom   37 type  2   force =     0.00000034   -0.00000063   -0.00000046
     atom   38 type  2   force =     0.00000037   -0.00000014   -0.00000053
     atom   39 type  2   force =     0.00000032   -0.00000052   -0.00000031
     atom   40 type  2   force =     0.00000005   -0.00000014   -0.00000063
     atom   41 type  2   force =     0.00000015    0.00000001    0.00000040
     atom   42 type  2   force =     0.00000048    0.00000004   -0.00000013
     atom   43 type  2   force =     0.00000027    0.00000022    0.00000029
     atom   44 type  2   force =     0.00000020    0.00000064    0.00000020
     atom   45 type  2   force =     0.00000061    0.00000064    0.00000025
     atom   46 type  2   force =     0.00000028    0.00000027    0.00000017
     atom   47 type  2   force =     0.00000007    0.00000041   -0.00000011
     atom   48 type  2   force =     0.00000029    0.00000006    0.00000030
     atom   49 type  1   force =     0.00000009    0.00000007   -0.00000023
     atom   50 type  1   force =     0.00000035    0.00000023    0.00000010
     atom   51 type  1   force =    -0.00000012   -0.00000005   -0.00000019
     atom   52 type  1   force =    -0.00000030   -0.00000014   -0.00000022
     atom   53 type  1   force =     0.00000043    0.00000077   -0.00000066
     atom   54 type  1   force =    -0.00000014    0.00000016   -0.00000007
     atom   55 type  1   force =    -0.00000033   -0.00000006   -0.00000000
     atom   56 type  1   force =    -0.00000024   -0.00000009    0.00000012
     atom   57 type  2   force =     0.00000023    0.00000026   -0.00000034
     atom   58 type  2   force =     0.00000044    0.00000067    0.00000004
     atom   59 type  2   force =     0.00000008    0.00000023   -0.00000038
     atom   60 type  2   force =    -0.00000046    0.00000039   -0.00000044
     atom   61 type  2   force =     0.00000044    0.00000084   -0.00000058
     atom   62 type  2   force =     0.00000013    0.00000050   -0.00000002
     atom   63 type  2   force =    -0.00000037    0.00000036   -0.00000022
     atom   64 type  2   force =    -0.00000020    0.00000051    0.00000016
     atom   65 type  2   force =     0.00000134    0.00000012   -0.00000016
     atom   66 type  2   force =    -0.00000027    0.00000017    0.00000028
     atom   67 type  2   force =    -0.00000104    0.00000001    0.00000031
     atom   68 type  2   force =    -0.00000049    0.00000003    0.00000037
     atom   69 type  2   force =     0.00000012   -0.00000026   -0.00000001
     atom   70 type  2   force =    -0.00000028    0.00000009    0.00000066
     atom   71 type  2   force =     0.00000010   -0.00000006   -0.00000006
     atom   72 type  2   force =    -0.00000036   -0.00000036    0.00000032
     atom   73 type  1   force =     0.00000116   -0.00000000    0.00000000
     atom   74 type  1   force =     0.00000023    0.00000000   -0.00000000
     atom   75 type  1   force =    -0.00000048   -0.00000000    0.00000000
     atom   76 type  1   force =     0.00000006    0.00000000   -0.00000000
     atom   77 type  1   force =    -0.00000007   -0.00000026    0.00000001
     atom   78 type  1   force =    -0.00000007    0.00000026   -0.00000001
     atom   79 type  1   force =     0.00000030    0.00000012   -0.00000024
     atom   80 type  1   force =     0.00000030   -0.00000012    0.00000024
     atom   81 type  2   force =    -0.00000027   -0.00000017   -0.00000028
     atom   82 type  2   force =     0.00000134   -0.00000012    0.00000016
     atom   83 type  2   force =    -0.00000049   -0.00000003   -0.00000037
     atom   84 type  2   force =    -0.00000104   -0.00000001   -0.00000031
     atom   85 type  2   force =    -0.00000028   -0.00000009   -0.00000066
     atom   86 type  2   force =     0.00000012    0.00000026    0.00000001
     atom   87 type  2   force =    -0.00000036    0.00000036   -0.00000032
     atom   88 type  2   force =     0.00000010    0.00000006    0.00000006
     atom   89 type  2   force =     0.00000044   -0.00000067   -0.00000004
     atom   90 type  2   force =     0.00000023   -0.00000026    0.00000034
     atom   91 type  2   force =    -0.00000046   -0.00000039    0.00000044
     atom   92 type  2   force =     0.00000008   -0.00000023    0.00000038
     atom   93 type  2   force =     0.00000013   -0.00000050    0.00000002
     atom   94 type  2   force =     0.00000044   -0.00000084    0.00000058
     atom   95 type  2   force =    -0.00000020   -0.00000051   -0.00000016
     atom   96 type  2   force =    -0.00000037   -0.00000036    0.00000022
     atom   97 type  1   force =     0.00000035   -0.00000023   -0.00000010
     atom   98 type  1   force =     0.00000009   -0.00000007    0.00000023
     atom   99 type  1   force =    -0.00000030    0.00000014    0.00000022
     atom  100 type  1   force =    -0.00000012    0.00000005    0.00000019
     atom  101 type  1   force =    -0.00000014   -0.00000016    0.00000007
     atom  102 type  1   force =     0.00000043   -0.00000077    0.00000066
     atom  103 type  1   force =    -0.00000024    0.00000009   -0.00000012
     atom  104 type  1   force =    -0.00000033    0.00000006    0.00000000
     atom  105 type  2   force =     0.00000048   -0.00000004    0.00000013
     atom  106 type  2   force =     0.00000015   -0.00000001   -0.00000040
     atom  107 type  2   force =     0.00000020   -0.00000064   -0.00000020
     atom  108 type  2   force =     0.00000027   -0.00000022   -0.00000029
     atom  109 type  2   force =     0.00000028   -0.00000027   -0.00000017
     atom  110 type  2   force =     0.00000061   -0.00000064   -0.00000025
     atom  111 type  2   force =     0.00000029   -0.00000006   -0.00000030
     atom  112 type  2   force =     0.00000007   -0.00000041    0.00000011
     atom  113 type  2   force =     0.00000044    0.00000032    0.00000040
     atom  114 type  2   force =     0.00000060   -0.00000003    0.00000072
     atom  115 type  2   force =     0.00000012    0.00000055    0.00000033
     atom  116 type  2   force =    -0.00000010    0.00000031    0.00000047
     atom  117 type  2   force =     0.00000037    0.00000014    0.00000053
     atom  118 type  2   force =     0.00000034    0.00000063    0.00000046
     atom  119 type  2   force =     0.00000005    0.00000014    0.00000063
     atom  120 type  2   force =     0.00000032    0.00000052    0.00000031
     atom  121 type  1   force =     0.00000004   -0.00000004    0.00000035
     atom  122 type  1   force =    -0.00000018   -0.00000019   -0.00000005
     atom  123 type  1   force =     0.00000024    0.00000007    0.00000015
     atom  124 type  1   force =     0.00000022   -0.00000028    0.00000032
     atom  125 type  1   force =     0.00000014    0.00000022    0.00000031
     atom  126 type  1   force =     0.00000009    0.00000043   -0.00000013
     atom  127 type  1   force =     0.00000001   -0.00000098   -0.00000013
     atom  128 type  1   force =     0.00000009    0.00000014   -0.00000020
     atom  129 type  2   force =     0.00000013    0.00000041   -0.00000004
     atom  130 type  2   force =     0.00000045    0.00000020   -0.00000016
     atom  131 type  2   force =    -0.00000008    0.00000054   -0.00000017
     atom  132 type  2   force =    -0.00000033    0.00000022    0.00000006
     atom  133 type  2   force =     0.00000015    0.00000053    0.00000015
     atom  134 type  2   force =     0.00000021    0.00000086   -0.00000022
     atom  135 type  2   force =    -0.00000078   -0.00000082    0.00000069
     atom  136 type  2   force =    -0.00000010    0.00000063   -0.00000031
     atom  137 type  2   force =    -0.00000006    0.00000022    0.00000048
     atom  138 type  2   force =     0.00000005    0.00000022    0.00000025
     atom  139 type  2   force =    -0.00000080   -0.00000007    0.00000052
     atom  140 type  2   force =    -0.00000036    0.00000005    0.00000021
     atom  141 type  2   force =    -0.00000072   -0.00000015    0.00000076
     atom  142 type  2   force =    -0.00000040    0.00000011    0.00000025
     atom  143 type  2   force =    -0.00000011   -0.00000035    0.00000067
     atom  144 type  2   force =    -0.00000022   -0.00000015    0.00000038

     Total force =     0.000169     Total SCF correction =     0.000008

     Writing output data file ./SiO2_OR_144_us.save/
 
     init_run     :      3.12s CPU      2.10s WALL (       1 calls)
     electrons    :     74.42s CPU     38.65s WALL (       1 calls)
     forces       :      1.61s CPU      0.86s WALL (       1 calls)

     Called by init_run:
     wfcinit      :      1.74s CPU      0.98s WALL (       1 calls)
     wfcinit:atom :      0.01s CPU      0.01s WALL (       1 calls)
     wfcinit:wfcr :      1.65s CPU      0.93s WALL (       1 calls)
     potinit      :      0.38s CPU      0.23s WALL (       1 calls)
     hinit0       :      0.46s CPU      0.32s WALL (       1 calls)

     Called by electrons:
     c_bands      :     64.40s CPU     33.16s WALL (      15 calls)
     sum_band     :      7.66s CPU      4.04s WALL (      15 calls)
     v_of_rho     :      1.01s CPU      0.59s WALL (      16 calls)
     v_h          :      0.08s CPU      0.05s WALL (      16 calls)
     v_xc         :      0.97s CPU      0.56s WALL (      17 calls)
     newd         :      0.91s CPU      0.57s WALL (      16 calls)
     mix_rho      :      0.25s CPU      0.14s WALL (      15 calls)

     Called by c_bands:
     init_us_2    :      0.37s CPU      0.20s WALL (      31 calls)
     cegterg      :     62.18s CPU     32.02s WALL (      15 calls)

     Called by sum_band:
     sum_band:wei :      0.00s CPU      0.00s WALL (      15 calls)
     sum_band:loo :      6.34s CPU      3.26s WALL (      15 calls)
     sum_band:buf :      0.00s CPU      0.00s WALL (      15 calls)
     sum_band:ini :      0.19s CPU      0.10s WALL (      15 calls)
     sum_band:cal :      1.74s CPU      0.91s WALL (      15 calls)
     sum_band:bec :      0.09s CPU      0.04s WALL (      15 calls)
     addusdens    :      0.68s CPU      0.44s WALL (      15 calls)
     addusd:skk   :      0.19s CPU      0.18s WALL (      30 calls)
     addusd:dgemm :      0.22s CPU      0.12s WALL (      30 calls)
     addusd:qvan2 :      0.20s CPU      0.10s WALL (      30 calls)

     Called by *egterg:
     cdiaghg      :     11.28s CPU      5.79s WALL (      68 calls)
     cegterg:over :      4.37s CPU      2.28s WALL (      53 calls)
     cegterg:upda :      3.53s CPU      1.81s WALL (      53 calls)
     cegterg:last :      7.70s CPU      3.89s WALL (      39 calls)
     cdiaghg:chol :      0.91s CPU      0.48s WALL (      68 calls)
     cdiaghg:inve :      0.07s CPU      0.04s WALL (      68 calls)
     cdiaghg:para :      1.30s CPU      0.70s WALL (     136 calls)
     h_psi        :     31.23s CPU     16.18s WALL (      69 calls)
     s_psi        :      4.18s CPU      2.15s WALL (      69 calls)
     g_psi        :      0.08s CPU      0.04s WALL (      53 calls)

     Called by h_psi:
     h_psi:calbec :      5.41s CPU      2.83s WALL (      69 calls)
     vloc_psi     :     21.28s CPU     10.98s WALL (      69 calls)
     vloc_psi:tg_ :      0.28s CPU      0.14s WALL (      69 calls)
     add_vuspsi   :      4.39s CPU      2.26s WALL (      69 calls)

     General routines
     calbec       :      7.62s CPU      3.97s WALL (      88 calls)
     fft          :      0.86s CPU      0.51s WALL (     217 calls)
     ffts         :      0.06s CPU      0.03s WALL (      31 calls)
     fftw         :     21.56s CPU     11.15s WALL (    5188 calls)
     interpolate  :      0.09s CPU      0.05s WALL (      16 calls)
 
     Parallel routines
     fft_scatt_xy :      3.63s CPU      1.88s WALL (    5436 calls)
     fft_scatt_yz :      6.84s CPU      3.68s WALL (    5436 calls)
     fft_scatt_tg :      2.65s CPU      1.35s WALL (    5188 calls)
 
     PWSCF        :   1m20.82s CPU     43.93s WALL

 
   This run was terminated on:  21:12:39  28Jun2021            

=------------------------------------------------------------------------------=
   JOB DONE.
=------------------------------------------------------------------------------=
