
     Program PWSCF v.6.6 starts on 20Mar2021 at  2:55:11 

     This program is part of the open-source Quantum ESPRESSO suite
     for quantum simulation of materials; please cite
         "P. Giannozzi et al., J. Phys.:Condens. Matter 21 395502 (2009);
         "P. Giannozzi et al., J. Phys.:Condens. Matter 29 465901 (2017);
          URL http://www.quantum-espresso.org", 
     in publications or presentations arising from this work. More details at
     http://www.quantum-espresso.org/quote

     Parallel version (MPI & OpenMP), running on     768 processor cores
     Number of MPI processes:               192
     Threads/MPI process:                     4

     MPI processes distributed on    16 nodes
     R & G space division:  proc/nbgrp/npool/nimage =     192
     wavefunctions fft division:  Y-proc x Z-proc =       8     24
     wavefunctions fft division:  task group distribution
                                  #TG    x Z-proc =       8     24
     Fft bands division:     nmany     =       1
     Reading input from input_quarzo_1152
Warning: card &CELL ignored
Warning: card / ignored

     Current dimensions of program PWSCF are:
     Max number of different atomic species (ntypx) = 10
     Max number of k-points (npk) =  40000
     Max angular momentum in pseudopotentials (lmaxx) =  3

     Subspace diagonalization in iterative solution of the eigenvalue problem:
     one sub-group per band group will be used
     ELPA distributed-memory algorithm (size of sub-group: 13* 13 procs)

     Found symmetry operation: I + (  0.0000 -0.5000  0.0000)
     This is a supercell, fractional translations are disabled
 
     Parallelization info
     --------------------
     sticks:   dense  smooth     PW     G-vecs:    dense   smooth      PW
     Min         158      78     20                49130    17352    2264
     Max         159      80     22                49199    17412    2303
     Sum       30425   15201   3917              9438265  3337165  438071
 


     bravais-lattice index     =            8
     lattice parameter (alat)  =      37.1445  a.u.
     unit-cell volume          =   97634.5934 (a.u.)^3
     number of atoms/cell      =         1152
     number of atomic types    =            2
     number of electrons       =      6144.00
     number of Kohn-Sham states=         3072
     kinetic-energy cutoff     =      40.0000  Ry
     charge density cutoff     =     320.0000  Ry
     convergence threshold     =      1.0E-10
     mixing beta               =       0.7000
     number of iterations used =            8  plain     mixing
     Exchange-correlation= PBESOL
                           (   1   4  10   8   0   0   0)

     celldm(1)=  37.144472  celldm(2)=   0.866025  celldm(3)=   2.199837
     celldm(4)=   0.000000  celldm(5)=   0.000000  celldm(6)=   0.000000

     crystal axes: (cart. coord. in units of alat)
               a(1) = (   1.000000   0.000000   0.000000 )  
               a(2) = (   0.000000   0.866025   0.000000 )  
               a(3) = (   0.000000   0.000000   2.199837 )  

     reciprocal axes: (cart. coord. in units 2 pi/alat)
               b(1) = (  1.000000  0.000000  0.000000 )  
               b(2) = (  0.000000  1.154701  0.000000 )  
               b(3) = (  0.000000  0.000000  0.454579 )  


     PseudoPot. # 1 for Si read from file:
     ./Si.pbesol-n-rrkjus_psl.0.1.UPF
     MD5 check sum: 84986bd6be9e79932892c86d18f23292
     Pseudo is Ultrasoft + core correction, Zval =  4.0
     Generated using "atomic" code by A. Dal Corso v.5.0.2 svn rev. 9415
     Using radial grid of 1141 points,  4 beta functions with: 
                l(1) =   0
                l(2) =   0
                l(3) =   1
                l(4) =   1
     Q(r) pseudized with 0 coefficients 


     PseudoPot. # 2 for O  read from file:
     ./O.pbesol-n-rrkjus_psl.0.1.UPF
     MD5 check sum: 82ba247c1b02f01b1b66dbedee2f956c
     Pseudo is Ultrasoft + core correction, Zval =  6.0
     Generated using "atomic" code by A. Dal Corso v.5.0.2 svn rev. 9415
     Using radial grid of 1095 points,  4 beta functions with: 
                l(1) =   0
                l(2) =   0
                l(3) =   1
                l(4) =   1
     Q(r) pseudized with 0 coefficients 


     atomic species   valence    mass     pseudopotential
        Si             4.00    47.86700     Si( 1.00)
        O              6.00    15.99940     O ( 1.00)

      2 Sym. Ops. (no inversion) found


                                    s                        frac. trans.

      isym =  1     identity                                     

 cryst.   s( 1) = (     1          0          0      )
                  (     0          1          0      )
                  (     0          0          1      )

 cart.    s( 1) = (  1.0000000  0.0000000  0.0000000 )
                  (  0.0000000  1.0000000  0.0000000 )
                  (  0.0000000  0.0000000  1.0000000 )


      isym =  2     180 deg rotation - cart. axis [1,0,0]        

 cryst.   s( 2) = (     1          0          0      )
                  (     0         -1          0      )
                  (     0          0         -1      )

 cart.    s( 2) = (  1.0000000  0.0000000  0.0000000 )
                  (  0.0000000 -1.0000000  0.0000000 )
                  (  0.0000000  0.0000000 -1.0000000 )


     point group C_2  (2)   
     there are  2 classes
     the character table:

       E     C2   
A      1.00  1.00
B      1.00 -1.00

     the symmetry operations in each class and the name of the first element:

     E        1
          identity                                               
     C2       2
          180 deg rotation - cart. axis [1,0,0]                  

   Cartesian axes

     site n.     atom                  positions (alat units)
         1           Si  tau(   1) = (   0.1172837   0.0000000   0.0000000  )
         2           Si  tau(   2) = (   0.1172837   0.4330127   0.0000000  )
         3           Si  tau(   3) = (   0.3672837   0.0000000   0.0000000  )
         4           Si  tau(   4) = (   0.3672837   0.4330127   0.0000000  )
         5           Si  tau(   5) = (   0.6172837   0.0000000   0.0000000  )
         6           Si  tau(   6) = (   0.6172837   0.4330127   0.0000000  )
         7           Si  tau(   7) = (   0.8672837   0.0000000   0.0000000  )
         8           Si  tau(   8) = (   0.8672837   0.4330127   0.0000000  )
         9           Si  tau(   9) = (   0.2422837   0.2165063   0.0000000  )
        10           Si  tau(  10) = (   0.2422837   0.6495190   0.0000000  )
        11           Si  tau(  11) = (   0.4922837   0.2165063   0.0000000  )
        12           Si  tau(  12) = (   0.4922837   0.6495190   0.0000000  )
        13           Si  tau(  13) = (   0.7422837   0.2165063   0.0000000  )
        14           Si  tau(  14) = (   0.7422837   0.6495190   0.0000000  )
        15           Si  tau(  15) = (   0.9922837   0.2165063   0.0000000  )
        16           Si  tau(  16) = (   0.9922837   0.6495190   0.0000000  )
        17           O   tau(  17) = (   0.0696567   0.3743553   0.0318126  )
        18           O   tau(  18) = (   0.0696567   0.8073680   0.0318126  )
        19           O   tau(  19) = (   0.3196567   0.3743553   0.0318126  )
        20           O   tau(  20) = (   0.3196567   0.8073680   0.0318126  )
        21           O   tau(  21) = (   0.5696567   0.3743553   0.0318126  )
        22           O   tau(  22) = (   0.5696567   0.8073680   0.0318126  )
        23           O   tau(  23) = (   0.8196567   0.3743553   0.0318126  )
        24           O   tau(  24) = (   0.8196567   0.8073680   0.0318126  )
        25           O   tau(  25) = (   0.1946567   0.1578489   0.0318126  )
        26           O   tau(  26) = (   0.1946567   0.5908616   0.0318126  )
        27           O   tau(  27) = (   0.4446567   0.1578489   0.0318126  )
        28           O   tau(  28) = (   0.4446567   0.5908616   0.0318126  )
        29           O   tau(  29) = (   0.6946567   0.1578489   0.0318126  )
        30           O   tau(  30) = (   0.6946567   0.5908616   0.0318126  )
        31           O   tau(  31) = (   0.9446567   0.1578489   0.0318126  )
        32           O   tau(  32) = (   0.9446567   0.5908616   0.0318126  )
        33           O   tau(  33) = (   0.1643728   0.0309958   0.0598473  )
        34           O   tau(  34) = (   0.1643728   0.4640085   0.0598473  )
        35           O   tau(  35) = (   0.4143728   0.0309958   0.0598473  )
        36           O   tau(  36) = (   0.4143728   0.4640085   0.0598473  )
        37           O   tau(  37) = (   0.6643728   0.0309958   0.0598473  )
        38           O   tau(  38) = (   0.6643728   0.4640085   0.0598473  )
        39           O   tau(  39) = (   0.9143728   0.0309958   0.0598473  )
        40           O   tau(  40) = (   0.9143728   0.4640085   0.0598473  )
        41           O   tau(  41) = (   0.0393728   0.2475022   0.0598473  )
        42           O   tau(  42) = (   0.0393728   0.6805149   0.0598473  )
        43           O   tau(  43) = (   0.2893728   0.2475022   0.0598473  )
        44           O   tau(  44) = (   0.2893728   0.6805149   0.0598473  )
        45           O   tau(  45) = (   0.5393728   0.2475022   0.0598473  )
        46           O   tau(  46) = (   0.5393728   0.6805149   0.0598473  )
        47           O   tau(  47) = (   0.7893728   0.2475022   0.0598473  )
        48           O   tau(  48) = (   0.7893728   0.6805149   0.0598473  )
        49           Si  tau(  49) = (   0.1913582   0.1015707   0.0916599  )
        50           Si  tau(  50) = (   0.1913582   0.5345834   0.0916599  )
        51           Si  tau(  51) = (   0.4413582   0.1015707   0.0916599  )
        52           Si  tau(  52) = (   0.4413582   0.5345834   0.0916599  )
        53           Si  tau(  53) = (   0.6913582   0.1015707   0.0916599  )
        54           Si  tau(  54) = (   0.6913582   0.5345834   0.0916599  )
        55           Si  tau(  55) = (   0.9413582   0.1015707   0.0916599  )
        56           Si  tau(  56) = (   0.9413582   0.5345834   0.0916599  )
        57           Si  tau(  57) = (   0.0663582   0.3180770   0.0916599  )
        58           Si  tau(  58) = (   0.0663582   0.7510897   0.0916599  )
        59           Si  tau(  59) = (   0.3163582   0.3180770   0.0916599  )
        60           Si  tau(  60) = (   0.3163582   0.7510897   0.0916599  )
        61           Si  tau(  61) = (   0.5663582   0.3180770   0.0916599  )
        62           Si  tau(  62) = (   0.5663582   0.7510897   0.0916599  )
        63           Si  tau(  63) = (   0.8163582   0.3180770   0.0916599  )
        64           Si  tau(  64) = (   0.8163582   0.7510897   0.0916599  )
        65           O   tau(  65) = (   0.0159705   0.0896532   0.1234725  )
        66           O   tau(  66) = (   0.0159705   0.5226659   0.1234725  )
        67           O   tau(  67) = (   0.2659705   0.0896532   0.1234725  )
        68           O   tau(  68) = (   0.2659705   0.5226659   0.1234725  )
        69           O   tau(  69) = (   0.5159704   0.0896532   0.1234725  )
        70           O   tau(  70) = (   0.5159704   0.5226659   0.1234725  )
        71           O   tau(  71) = (   0.7659704   0.0896532   0.1234725  )
        72           O   tau(  72) = (   0.7659704   0.5226659   0.1234725  )
        73           O   tau(  73) = (   0.1409704   0.3061596   0.1234725  )
        74           O   tau(  74) = (   0.1409704   0.7391723   0.1234725  )
        75           O   tau(  75) = (   0.3909705   0.3061596   0.1234725  )
        76           O   tau(  76) = (   0.3909705   0.7391723   0.1234725  )
        77           O   tau(  77) = (   0.6409704   0.3061596   0.1234725  )
        78           O   tau(  78) = (   0.6409704   0.7391723   0.1234725  )
        79           O   tau(  79) = (   0.8909704   0.3061596   0.1234725  )
        80           O   tau(  80) = (   0.8909704   0.7391723   0.1234725  )
        81           O   tau(  81) = (   0.0159705   0.3433595   0.1515072  )
        82           O   tau(  82) = (   0.0159705   0.7763722   0.1515072  )
        83           O   tau(  83) = (   0.2659705   0.3433595   0.1515072  )
        84           O   tau(  84) = (   0.2659705   0.7763722   0.1515072  )
        85           O   tau(  85) = (   0.5159704   0.3433595   0.1515072  )
        86           O   tau(  86) = (   0.5159704   0.7763722   0.1515072  )
        87           O   tau(  87) = (   0.7659704   0.3433595   0.1515072  )
        88           O   tau(  88) = (   0.7659704   0.7763722   0.1515072  )
        89           O   tau(  89) = (   0.1409704   0.1268531   0.1515072  )
        90           O   tau(  90) = (   0.1409704   0.5598658   0.1515072  )
        91           O   tau(  91) = (   0.3909705   0.1268531   0.1515072  )
        92           O   tau(  92) = (   0.3909705   0.5598658   0.1515072  )
        93           O   tau(  93) = (   0.6409704   0.1268531   0.1515072  )
        94           O   tau(  94) = (   0.6409704   0.5598658   0.1515072  )
        95           O   tau(  95) = (   0.8909704   0.1268531   0.1515072  )
        96           O   tau(  96) = (   0.8909704   0.5598658   0.1515072  )
        97           Si  tau(  97) = (   0.1913582   0.3314420   0.1833198  )
        98           Si  tau(  98) = (   0.1913582   0.7644547   0.1833198  )
        99           Si  tau(  99) = (   0.4413582   0.3314420   0.1833198  )
       100           Si  tau( 100) = (   0.4413582   0.7644547   0.1833198  )
       101           Si  tau( 101) = (   0.6913582   0.3314420   0.1833198  )
       102           Si  tau( 102) = (   0.6913582   0.7644547   0.1833198  )
       103           Si  tau( 103) = (   0.9413582   0.3314420   0.1833198  )
       104           Si  tau( 104) = (   0.9413582   0.7644547   0.1833198  )
       105           Si  tau( 105) = (   0.0663582   0.1149357   0.1833198  )
       106           Si  tau( 106) = (   0.0663582   0.5479484   0.1833198  )
       107           Si  tau( 107) = (   0.3163582   0.1149357   0.1833198  )
       108           Si  tau( 108) = (   0.3163582   0.5479484   0.1833198  )
       109           Si  tau( 109) = (   0.5663582   0.1149357   0.1833198  )
       110           Si  tau( 110) = (   0.5663582   0.5479484   0.1833198  )
       111           Si  tau( 111) = (   0.8163582   0.1149357   0.1833198  )
       112           Si  tau( 112) = (   0.8163582   0.5479484   0.1833198  )
       113           O   tau( 113) = (   0.1643728   0.4020169   0.2151324  )
       114           O   tau( 114) = (   0.1643728   0.8350296   0.2151324  )
       115           O   tau( 115) = (   0.4143728   0.4020169   0.2151324  )
       116           O   tau( 116) = (   0.4143728   0.8350296   0.2151324  )
       117           O   tau( 117) = (   0.6643728   0.4020169   0.2151324  )
       118           O   tau( 118) = (   0.6643728   0.8350296   0.2151324  )
       119           O   tau( 119) = (   0.9143728   0.4020169   0.2151324  )
       120           O   tau( 120) = (   0.9143728   0.8350296   0.2151324  )
       121           O   tau( 121) = (   0.0393728   0.1855106   0.2151324  )
       122           O   tau( 122) = (   0.0393728   0.6185233   0.2151324  )
       123           O   tau( 123) = (   0.2893728   0.1855106   0.2151324  )
       124           O   tau( 124) = (   0.2893728   0.6185233   0.2151324  )
       125           O   tau( 125) = (   0.5393728   0.1855106   0.2151324  )
       126           O   tau( 126) = (   0.5393728   0.6185233   0.2151324  )
       127           O   tau( 127) = (   0.7893728   0.1855106   0.2151324  )
       128           O   tau( 128) = (   0.7893728   0.6185233   0.2151324  )
       129           O   tau( 129) = (   0.0696567   0.0586574   0.2431670  )
       130           O   tau( 130) = (   0.0696567   0.4916701   0.2431670  )
       131           O   tau( 131) = (   0.3196567   0.0586574   0.2431670  )
       132           O   tau( 132) = (   0.3196567   0.4916701   0.2431670  )
       133           O   tau( 133) = (   0.5696567   0.0586574   0.2431670  )
       134           O   tau( 134) = (   0.5696567   0.4916701   0.2431670  )
       135           O   tau( 135) = (   0.8196567   0.0586574   0.2431670  )
       136           O   tau( 136) = (   0.8196567   0.4916701   0.2431670  )
       137           O   tau( 137) = (   0.1946567   0.2751638   0.2431670  )
       138           O   tau( 138) = (   0.1946567   0.7081765   0.2431670  )
       139           O   tau( 139) = (   0.4446567   0.2751638   0.2431670  )
       140           O   tau( 140) = (   0.4446567   0.7081765   0.2431670  )
       141           O   tau( 141) = (   0.6946567   0.2751638   0.2431670  )
       142           O   tau( 142) = (   0.6946567   0.7081765   0.2431670  )
       143           O   tau( 143) = (   0.9446567   0.2751638   0.2431670  )
       144           O   tau( 144) = (   0.9446567   0.7081765   0.2431670  )
       145           Si  tau( 145) = (   0.1172837   0.0000000   0.2749797  )
       146           Si  tau( 146) = (   0.1172837   0.4330127   0.2749797  )
       147           Si  tau( 147) = (   0.3672837   0.0000000   0.2749797  )
       148           Si  tau( 148) = (   0.3672837   0.4330127   0.2749797  )
       149           Si  tau( 149) = (   0.6172837   0.0000000   0.2749797  )
       150           Si  tau( 150) = (   0.6172837   0.4330127   0.2749797  )
       151           Si  tau( 151) = (   0.8672837   0.0000000   0.2749797  )
       152           Si  tau( 152) = (   0.8672837   0.4330127   0.2749797  )
       153           Si  tau( 153) = (   0.2422837   0.2165063   0.2749797  )
       154           Si  tau( 154) = (   0.2422837   0.6495190   0.2749797  )
       155           Si  tau( 155) = (   0.4922837   0.2165063   0.2749797  )
       156           Si  tau( 156) = (   0.4922837   0.6495190   0.2749797  )
       157           Si  tau( 157) = (   0.7422837   0.2165063   0.2749797  )
       158           Si  tau( 158) = (   0.7422837   0.6495190   0.2749797  )
       159           Si  tau( 159) = (   0.9922837   0.2165063   0.2749797  )
       160           Si  tau( 160) = (   0.9922837   0.6495190   0.2749797  )
       161           O   tau( 161) = (   0.0696567   0.3743553   0.3067923  )
       162           O   tau( 162) = (   0.0696567   0.8073680   0.3067923  )
       163           O   tau( 163) = (   0.3196567   0.3743553   0.3067923  )
       164           O   tau( 164) = (   0.3196567   0.8073680   0.3067923  )
       165           O   tau( 165) = (   0.5696567   0.3743553   0.3067923  )
       166           O   tau( 166) = (   0.5696567   0.8073680   0.3067923  )
       167           O   tau( 167) = (   0.8196567   0.3743553   0.3067923  )
       168           O   tau( 168) = (   0.8196567   0.8073680   0.3067923  )
       169           O   tau( 169) = (   0.1946567   0.1578489   0.3067923  )
       170           O   tau( 170) = (   0.1946567   0.5908616   0.3067923  )
       171           O   tau( 171) = (   0.4446567   0.1578489   0.3067923  )
       172           O   tau( 172) = (   0.4446567   0.5908616   0.3067923  )
       173           O   tau( 173) = (   0.6946567   0.1578489   0.3067923  )
       174           O   tau( 174) = (   0.6946567   0.5908616   0.3067923  )
       175           O   tau( 175) = (   0.9446567   0.1578489   0.3067923  )
       176           O   tau( 176) = (   0.9446567   0.5908616   0.3067923  )
       177           O   tau( 177) = (   0.1643728   0.0309958   0.3348269  )
       178           O   tau( 178) = (   0.1643728   0.4640085   0.3348269  )
       179           O   tau( 179) = (   0.4143728   0.0309958   0.3348269  )
       180           O   tau( 180) = (   0.4143728   0.4640085   0.3348269  )
       181           O   tau( 181) = (   0.6643728   0.0309958   0.3348269  )
       182           O   tau( 182) = (   0.6643728   0.4640085   0.3348269  )
       183           O   tau( 183) = (   0.9143728   0.0309958   0.3348269  )
       184           O   tau( 184) = (   0.9143728   0.4640085   0.3348269  )
       185           O   tau( 185) = (   0.0393728   0.2475022   0.3348269  )
       186           O   tau( 186) = (   0.0393728   0.6805149   0.3348269  )
       187           O   tau( 187) = (   0.2893728   0.2475022   0.3348269  )
       188           O   tau( 188) = (   0.2893728   0.6805149   0.3348269  )
       189           O   tau( 189) = (   0.5393728   0.2475022   0.3348269  )
       190           O   tau( 190) = (   0.5393728   0.6805149   0.3348269  )
       191           O   tau( 191) = (   0.7893728   0.2475022   0.3348269  )
       192           O   tau( 192) = (   0.7893728   0.6805149   0.3348269  )
       193           Si  tau( 193) = (   0.1913582   0.1015707   0.3666395  )
       194           Si  tau( 194) = (   0.1913582   0.5345834   0.3666395  )
       195           Si  tau( 195) = (   0.4413582   0.1015707   0.3666395  )
       196           Si  tau( 196) = (   0.4413582   0.5345834   0.3666395  )
       197           Si  tau( 197) = (   0.6913582   0.1015707   0.3666395  )
       198           Si  tau( 198) = (   0.6913582   0.5345834   0.3666395  )
       199           Si  tau( 199) = (   0.9413582   0.1015707   0.3666395  )
       200           Si  tau( 200) = (   0.9413582   0.5345834   0.3666395  )
       201           Si  tau( 201) = (   0.0663582   0.3180770   0.3666395  )
       202           Si  tau( 202) = (   0.0663582   0.7510897   0.3666395  )
       203           Si  tau( 203) = (   0.3163582   0.3180770   0.3666395  )
       204           Si  tau( 204) = (   0.3163582   0.7510897   0.3666395  )
       205           Si  tau( 205) = (   0.5663582   0.3180770   0.3666395  )
       206           Si  tau( 206) = (   0.5663582   0.7510897   0.3666395  )
       207           Si  tau( 207) = (   0.8163582   0.3180770   0.3666395  )
       208           Si  tau( 208) = (   0.8163582   0.7510897   0.3666395  )
       209           O   tau( 209) = (   0.0159705   0.0896532   0.3984522  )
       210           O   tau( 210) = (   0.0159705   0.5226659   0.3984522  )
       211           O   tau( 211) = (   0.2659705   0.0896532   0.3984522  )
       212           O   tau( 212) = (   0.2659705   0.5226659   0.3984522  )
       213           O   tau( 213) = (   0.5159704   0.0896532   0.3984522  )
       214           O   tau( 214) = (   0.5159704   0.5226659   0.3984522  )
       215           O   tau( 215) = (   0.7659704   0.0896532   0.3984522  )
       216           O   tau( 216) = (   0.7659704   0.5226659   0.3984522  )
       217           O   tau( 217) = (   0.1409704   0.3061596   0.3984522  )
       218           O   tau( 218) = (   0.1409704   0.7391723   0.3984522  )
       219           O   tau( 219) = (   0.3909705   0.3061596   0.3984522  )
       220           O   tau( 220) = (   0.3909705   0.7391723   0.3984522  )
       221           O   tau( 221) = (   0.6409704   0.3061596   0.3984522  )
       222           O   tau( 222) = (   0.6409704   0.7391723   0.3984522  )
       223           O   tau( 223) = (   0.8909704   0.3061596   0.3984522  )
       224           O   tau( 224) = (   0.8909704   0.7391723   0.3984522  )
       225           O   tau( 225) = (   0.0159705   0.3433595   0.4264868  )
       226           O   tau( 226) = (   0.0159705   0.7763722   0.4264868  )
       227           O   tau( 227) = (   0.2659705   0.3433595   0.4264868  )
       228           O   tau( 228) = (   0.2659705   0.7763722   0.4264868  )
       229           O   tau( 229) = (   0.5159704   0.3433595   0.4264868  )
       230           O   tau( 230) = (   0.5159704   0.7763722   0.4264868  )
       231           O   tau( 231) = (   0.7659704   0.3433595   0.4264868  )
       232           O   tau( 232) = (   0.7659704   0.7763722   0.4264868  )
       233           O   tau( 233) = (   0.1409704   0.1268531   0.4264868  )
       234           O   tau( 234) = (   0.1409704   0.5598658   0.4264868  )
       235           O   tau( 235) = (   0.3909705   0.1268531   0.4264868  )
       236           O   tau( 236) = (   0.3909705   0.5598658   0.4264868  )
       237           O   tau( 237) = (   0.6409704   0.1268531   0.4264868  )
       238           O   tau( 238) = (   0.6409704   0.5598658   0.4264868  )
       239           O   tau( 239) = (   0.8909704   0.1268531   0.4264868  )
       240           O   tau( 240) = (   0.8909704   0.5598658   0.4264868  )
       241           Si  tau( 241) = (   0.1913582   0.3314420   0.4582994  )
       242           Si  tau( 242) = (   0.1913582   0.7644547   0.4582994  )
       243           Si  tau( 243) = (   0.4413582   0.3314420   0.4582994  )
       244           Si  tau( 244) = (   0.4413582   0.7644547   0.4582994  )
       245           Si  tau( 245) = (   0.6913582   0.3314420   0.4582994  )
       246           Si  tau( 246) = (   0.6913582   0.7644547   0.4582994  )
       247           Si  tau( 247) = (   0.9413582   0.3314420   0.4582994  )
       248           Si  tau( 248) = (   0.9413582   0.7644547   0.4582994  )
       249           Si  tau( 249) = (   0.0663582   0.1149357   0.4582994  )
       250           Si  tau( 250) = (   0.0663582   0.5479484   0.4582994  )
       251           Si  tau( 251) = (   0.3163582   0.1149357   0.4582994  )
       252           Si  tau( 252) = (   0.3163582   0.5479484   0.4582994  )
       253           Si  tau( 253) = (   0.5663582   0.1149357   0.4582994  )
       254           Si  tau( 254) = (   0.5663582   0.5479484   0.4582994  )
       255           Si  tau( 255) = (   0.8163582   0.1149357   0.4582994  )
       256           Si  tau( 256) = (   0.8163582   0.5479484   0.4582994  )
       257           O   tau( 257) = (   0.1643728   0.4020169   0.4901120  )
       258           O   tau( 258) = (   0.1643728   0.8350296   0.4901120  )
       259           O   tau( 259) = (   0.4143728   0.4020169   0.4901120  )
       260           O   tau( 260) = (   0.4143728   0.8350296   0.4901120  )
       261           O   tau( 261) = (   0.6643728   0.4020169   0.4901120  )
       262           O   tau( 262) = (   0.6643728   0.8350296   0.4901120  )
       263           O   tau( 263) = (   0.9143728   0.4020169   0.4901120  )
       264           O   tau( 264) = (   0.9143728   0.8350296   0.4901120  )
       265           O   tau( 265) = (   0.0393728   0.1855106   0.4901120  )
       266           O   tau( 266) = (   0.0393728   0.6185233   0.4901120  )
       267           O   tau( 267) = (   0.2893728   0.1855106   0.4901120  )
       268           O   tau( 268) = (   0.2893728   0.6185233   0.4901120  )
       269           O   tau( 269) = (   0.5393728   0.1855106   0.4901120  )
       270           O   tau( 270) = (   0.5393728   0.6185233   0.4901120  )
       271           O   tau( 271) = (   0.7893728   0.1855106   0.4901120  )
       272           O   tau( 272) = (   0.7893728   0.6185233   0.4901120  )
       273           O   tau( 273) = (   0.0696567   0.0586574   0.5181467  )
       274           O   tau( 274) = (   0.0696567   0.4916701   0.5181467  )
       275           O   tau( 275) = (   0.3196567   0.0586574   0.5181467  )
       276           O   tau( 276) = (   0.3196567   0.4916701   0.5181467  )
       277           O   tau( 277) = (   0.5696567   0.0586574   0.5181467  )
       278           O   tau( 278) = (   0.5696567   0.4916701   0.5181467  )
       279           O   tau( 279) = (   0.8196567   0.0586574   0.5181467  )
       280           O   tau( 280) = (   0.8196567   0.4916701   0.5181467  )
       281           O   tau( 281) = (   0.1946567   0.2751638   0.5181467  )
       282           O   tau( 282) = (   0.1946567   0.7081765   0.5181467  )
       283           O   tau( 283) = (   0.4446567   0.2751638   0.5181467  )
       284           O   tau( 284) = (   0.4446567   0.7081765   0.5181467  )
       285           O   tau( 285) = (   0.6946567   0.2751638   0.5181467  )
       286           O   tau( 286) = (   0.6946567   0.7081765   0.5181467  )
       287           O   tau( 287) = (   0.9446567   0.2751638   0.5181467  )
       288           O   tau( 288) = (   0.9446567   0.7081765   0.5181467  )
       289           Si  tau( 289) = (   0.1172837   0.0000000   0.5499593  )
       290           Si  tau( 290) = (   0.1172837   0.4330127   0.5499593  )
       291           Si  tau( 291) = (   0.3672837   0.0000000   0.5499593  )
       292           Si  tau( 292) = (   0.3672837   0.4330127   0.5499593  )
       293           Si  tau( 293) = (   0.6172837   0.0000000   0.5499593  )
       294           Si  tau( 294) = (   0.6172837   0.4330127   0.5499593  )
       295           Si  tau( 295) = (   0.8672837   0.0000000   0.5499593  )
       296           Si  tau( 296) = (   0.8672837   0.4330127   0.5499593  )
       297           Si  tau( 297) = (   0.2422837   0.2165063   0.5499593  )
       298           Si  tau( 298) = (   0.2422837   0.6495190   0.5499593  )
       299           Si  tau( 299) = (   0.4922837   0.2165063   0.5499593  )
       300           Si  tau( 300) = (   0.4922837   0.6495190   0.5499593  )
       301           Si  tau( 301) = (   0.7422837   0.2165063   0.5499593  )
       302           Si  tau( 302) = (   0.7422837   0.6495190   0.5499593  )
       303           Si  tau( 303) = (   0.9922837   0.2165063   0.5499593  )
       304           Si  tau( 304) = (   0.9922837   0.6495190   0.5499593  )
       305           O   tau( 305) = (   0.0696567   0.3743553   0.5817719  )
       306           O   tau( 306) = (   0.0696567   0.8073680   0.5817719  )
       307           O   tau( 307) = (   0.3196567   0.3743553   0.5817719  )
       308           O   tau( 308) = (   0.3196567   0.8073680   0.5817719  )
       309           O   tau( 309) = (   0.5696567   0.3743553   0.5817719  )
       310           O   tau( 310) = (   0.5696567   0.8073680   0.5817719  )
       311           O   tau( 311) = (   0.8196567   0.3743553   0.5817719  )
       312           O   tau( 312) = (   0.8196567   0.8073680   0.5817719  )
       313           O   tau( 313) = (   0.1946567   0.1578489   0.5817719  )
       314           O   tau( 314) = (   0.1946567   0.5908616   0.5817719  )
       315           O   tau( 315) = (   0.4446567   0.1578489   0.5817719  )
       316           O   tau( 316) = (   0.4446567   0.5908616   0.5817719  )
       317           O   tau( 317) = (   0.6946567   0.1578489   0.5817719  )
       318           O   tau( 318) = (   0.6946567   0.5908616   0.5817719  )
       319           O   tau( 319) = (   0.9446567   0.1578489   0.5817719  )
       320           O   tau( 320) = (   0.9446567   0.5908616   0.5817719  )
       321           O   tau( 321) = (   0.1643728   0.0309958   0.6098066  )
       322           O   tau( 322) = (   0.1643728   0.4640085   0.6098066  )
       323           O   tau( 323) = (   0.4143728   0.0309958   0.6098066  )
       324           O   tau( 324) = (   0.4143728   0.4640085   0.6098066  )
       325           O   tau( 325) = (   0.6643728   0.0309958   0.6098066  )
       326           O   tau( 326) = (   0.6643728   0.4640085   0.6098066  )
       327           O   tau( 327) = (   0.9143728   0.0309958   0.6098066  )
       328           O   tau( 328) = (   0.9143728   0.4640085   0.6098066  )
       329           O   tau( 329) = (   0.0393728   0.2475022   0.6098066  )
       330           O   tau( 330) = (   0.0393728   0.6805149   0.6098066  )
       331           O   tau( 331) = (   0.2893728   0.2475022   0.6098066  )
       332           O   tau( 332) = (   0.2893728   0.6805149   0.6098066  )
       333           O   tau( 333) = (   0.5393728   0.2475022   0.6098066  )
       334           O   tau( 334) = (   0.5393728   0.6805149   0.6098066  )
       335           O   tau( 335) = (   0.7893728   0.2475022   0.6098066  )
       336           O   tau( 336) = (   0.7893728   0.6805149   0.6098066  )
       337           Si  tau( 337) = (   0.1913582   0.1015707   0.6416192  )
       338           Si  tau( 338) = (   0.1913582   0.5345834   0.6416192  )
       339           Si  tau( 339) = (   0.4413582   0.1015707   0.6416192  )
       340           Si  tau( 340) = (   0.4413582   0.5345834   0.6416192  )
       341           Si  tau( 341) = (   0.6913582   0.1015707   0.6416192  )
       342           Si  tau( 342) = (   0.6913582   0.5345834   0.6416192  )
       343           Si  tau( 343) = (   0.9413582   0.1015707   0.6416192  )
       344           Si  tau( 344) = (   0.9413582   0.5345834   0.6416192  )
       345           Si  tau( 345) = (   0.0663582   0.3180770   0.6416192  )
       346           Si  tau( 346) = (   0.0663582   0.7510897   0.6416192  )
       347           Si  tau( 347) = (   0.3163582   0.3180770   0.6416192  )
       348           Si  tau( 348) = (   0.3163582   0.7510897   0.6416192  )
       349           Si  tau( 349) = (   0.5663582   0.3180770   0.6416192  )
       350           Si  tau( 350) = (   0.5663582   0.7510897   0.6416192  )
       351           Si  tau( 351) = (   0.8163582   0.3180770   0.6416192  )
       352           Si  tau( 352) = (   0.8163582   0.7510897   0.6416192  )
       353           O   tau( 353) = (   0.0159705   0.0896532   0.6734318  )
       354           O   tau( 354) = (   0.0159705   0.5226659   0.6734318  )
       355           O   tau( 355) = (   0.2659705   0.0896532   0.6734318  )
       356           O   tau( 356) = (   0.2659705   0.5226659   0.6734318  )
       357           O   tau( 357) = (   0.5159704   0.0896532   0.6734318  )
       358           O   tau( 358) = (   0.5159704   0.5226659   0.6734318  )
       359           O   tau( 359) = (   0.7659704   0.0896532   0.6734318  )
       360           O   tau( 360) = (   0.7659704   0.5226659   0.6734318  )
       361           O   tau( 361) = (   0.1409704   0.3061596   0.6734318  )
       362           O   tau( 362) = (   0.1409704   0.7391723   0.6734318  )
       363           O   tau( 363) = (   0.3909705   0.3061596   0.6734318  )
       364           O   tau( 364) = (   0.3909705   0.7391723   0.6734318  )
       365           O   tau( 365) = (   0.6409704   0.3061596   0.6734318  )
       366           O   tau( 366) = (   0.6409704   0.7391723   0.6734318  )
       367           O   tau( 367) = (   0.8909704   0.3061596   0.6734318  )
       368           O   tau( 368) = (   0.8909704   0.7391723   0.6734318  )
       369           O   tau( 369) = (   0.0159705   0.3433595   0.7014664  )
       370           O   tau( 370) = (   0.0159705   0.7763722   0.7014664  )
       371           O   tau( 371) = (   0.2659705   0.3433595   0.7014664  )
       372           O   tau( 372) = (   0.2659705   0.7763722   0.7014664  )
       373           O   tau( 373) = (   0.5159704   0.3433595   0.7014664  )
       374           O   tau( 374) = (   0.5159704   0.7763722   0.7014664  )
       375           O   tau( 375) = (   0.7659704   0.3433595   0.7014664  )
       376           O   tau( 376) = (   0.7659704   0.7763722   0.7014664  )
       377           O   tau( 377) = (   0.1409704   0.1268531   0.7014664  )
       378           O   tau( 378) = (   0.1409704   0.5598658   0.7014664  )
       379           O   tau( 379) = (   0.3909705   0.1268531   0.7014664  )
       380           O   tau( 380) = (   0.3909705   0.5598658   0.7014664  )
       381           O   tau( 381) = (   0.6409704   0.1268531   0.7014664  )
       382           O   tau( 382) = (   0.6409704   0.5598658   0.7014664  )
       383           O   tau( 383) = (   0.8909704   0.1268531   0.7014664  )
       384           O   tau( 384) = (   0.8909704   0.5598658   0.7014664  )
       385           Si  tau( 385) = (   0.1913582   0.3314420   0.7332791  )
       386           Si  tau( 386) = (   0.1913582   0.7644547   0.7332791  )
       387           Si  tau( 387) = (   0.4413582   0.3314420   0.7332791  )
       388           Si  tau( 388) = (   0.4413582   0.7644547   0.7332791  )
       389           Si  tau( 389) = (   0.6913582   0.3314420   0.7332791  )
       390           Si  tau( 390) = (   0.6913582   0.7644547   0.7332791  )
       391           Si  tau( 391) = (   0.9413582   0.3314420   0.7332791  )
       392           Si  tau( 392) = (   0.9413582   0.7644547   0.7332791  )
       393           Si  tau( 393) = (   0.0663582   0.1149357   0.7332791  )
       394           Si  tau( 394) = (   0.0663582   0.5479484   0.7332791  )
       395           Si  tau( 395) = (   0.3163582   0.1149357   0.7332791  )
       396           Si  tau( 396) = (   0.3163582   0.5479484   0.7332791  )
       397           Si  tau( 397) = (   0.5663582   0.1149357   0.7332791  )
       398           Si  tau( 398) = (   0.5663582   0.5479484   0.7332791  )
       399           Si  tau( 399) = (   0.8163582   0.1149357   0.7332791  )
       400           Si  tau( 400) = (   0.8163582   0.5479484   0.7332791  )
       401           O   tau( 401) = (   0.1643728   0.4020169   0.7650917  )
       402           O   tau( 402) = (   0.1643728   0.8350296   0.7650917  )
       403           O   tau( 403) = (   0.4143728   0.4020169   0.7650917  )
       404           O   tau( 404) = (   0.4143728   0.8350296   0.7650917  )
       405           O   tau( 405) = (   0.6643728   0.4020169   0.7650917  )
       406           O   tau( 406) = (   0.6643728   0.8350296   0.7650917  )
       407           O   tau( 407) = (   0.9143728   0.4020169   0.7650917  )
       408           O   tau( 408) = (   0.9143728   0.8350296   0.7650917  )
       409           O   tau( 409) = (   0.0393728   0.1855106   0.7650917  )
       410           O   tau( 410) = (   0.0393728   0.6185233   0.7650917  )
       411           O   tau( 411) = (   0.2893728   0.1855106   0.7650917  )
       412           O   tau( 412) = (   0.2893728   0.6185233   0.7650917  )
       413           O   tau( 413) = (   0.5393728   0.1855106   0.7650917  )
       414           O   tau( 414) = (   0.5393728   0.6185233   0.7650917  )
       415           O   tau( 415) = (   0.7893728   0.1855106   0.7650917  )
       416           O   tau( 416) = (   0.7893728   0.6185233   0.7650917  )
       417           O   tau( 417) = (   0.0696567   0.0586574   0.7931263  )
       418           O   tau( 418) = (   0.0696567   0.4916701   0.7931263  )
       419           O   tau( 419) = (   0.3196567   0.0586574   0.7931263  )
       420           O   tau( 420) = (   0.3196567   0.4916701   0.7931263  )
       421           O   tau( 421) = (   0.5696567   0.0586574   0.7931263  )
       422           O   tau( 422) = (   0.5696567   0.4916701   0.7931263  )
       423           O   tau( 423) = (   0.8196567   0.0586574   0.7931263  )
       424           O   tau( 424) = (   0.8196567   0.4916701   0.7931263  )
       425           O   tau( 425) = (   0.1946567   0.2751638   0.7931263  )
       426           O   tau( 426) = (   0.1946567   0.7081765   0.7931263  )
       427           O   tau( 427) = (   0.4446567   0.2751638   0.7931263  )
       428           O   tau( 428) = (   0.4446567   0.7081765   0.7931263  )
       429           O   tau( 429) = (   0.6946567   0.2751638   0.7931263  )
       430           O   tau( 430) = (   0.6946567   0.7081765   0.7931263  )
       431           O   tau( 431) = (   0.9446567   0.2751638   0.7931263  )
       432           O   tau( 432) = (   0.9446567   0.7081765   0.7931263  )
       433           Si  tau( 433) = (   0.1172837   0.0000000   0.8249389  )
       434           Si  tau( 434) = (   0.1172837   0.4330127   0.8249389  )
       435           Si  tau( 435) = (   0.3672837   0.0000000   0.8249389  )
       436           Si  tau( 436) = (   0.3672837   0.4330127   0.8249389  )
       437           Si  tau( 437) = (   0.6172837   0.0000000   0.8249389  )
       438           Si  tau( 438) = (   0.6172837   0.4330127   0.8249389  )
       439           Si  tau( 439) = (   0.8672837   0.0000000   0.8249389  )
       440           Si  tau( 440) = (   0.8672837   0.4330127   0.8249389  )
       441           Si  tau( 441) = (   0.2422837   0.2165063   0.8249389  )
       442           Si  tau( 442) = (   0.2422837   0.6495190   0.8249389  )
       443           Si  tau( 443) = (   0.4922837   0.2165063   0.8249389  )
       444           Si  tau( 444) = (   0.4922837   0.6495190   0.8249389  )
       445           Si  tau( 445) = (   0.7422837   0.2165063   0.8249389  )
       446           Si  tau( 446) = (   0.7422837   0.6495190   0.8249389  )
       447           Si  tau( 447) = (   0.9922837   0.2165063   0.8249389  )
       448           Si  tau( 448) = (   0.9922837   0.6495190   0.8249389  )
       449           O   tau( 449) = (   0.0696567   0.3743553   0.8567516  )
       450           O   tau( 450) = (   0.0696567   0.8073680   0.8567516  )
       451           O   tau( 451) = (   0.3196567   0.3743553   0.8567516  )
       452           O   tau( 452) = (   0.3196567   0.8073680   0.8567516  )
       453           O   tau( 453) = (   0.5696567   0.3743553   0.8567516  )
       454           O   tau( 454) = (   0.5696567   0.8073680   0.8567516  )
       455           O   tau( 455) = (   0.8196567   0.3743553   0.8567516  )
       456           O   tau( 456) = (   0.8196567   0.8073680   0.8567516  )
       457           O   tau( 457) = (   0.1946567   0.1578489   0.8567516  )
       458           O   tau( 458) = (   0.1946567   0.5908616   0.8567516  )
       459           O   tau( 459) = (   0.4446567   0.1578489   0.8567516  )
       460           O   tau( 460) = (   0.4446567   0.5908616   0.8567516  )
       461           O   tau( 461) = (   0.6946567   0.1578489   0.8567516  )
       462           O   tau( 462) = (   0.6946567   0.5908616   0.8567516  )
       463           O   tau( 463) = (   0.9446567   0.1578489   0.8567516  )
       464           O   tau( 464) = (   0.9446567   0.5908616   0.8567516  )
       465           O   tau( 465) = (   0.1643728   0.0309958   0.8847862  )
       466           O   tau( 466) = (   0.1643728   0.4640085   0.8847862  )
       467           O   tau( 467) = (   0.4143728   0.0309958   0.8847862  )
       468           O   tau( 468) = (   0.4143728   0.4640085   0.8847862  )
       469           O   tau( 469) = (   0.6643728   0.0309958   0.8847862  )
       470           O   tau( 470) = (   0.6643728   0.4640085   0.8847862  )
       471           O   tau( 471) = (   0.9143728   0.0309958   0.8847862  )
       472           O   tau( 472) = (   0.9143728   0.4640085   0.8847862  )
       473           O   tau( 473) = (   0.0393728   0.2475022   0.8847862  )
       474           O   tau( 474) = (   0.0393728   0.6805149   0.8847862  )
       475           O   tau( 475) = (   0.2893728   0.2475022   0.8847862  )
       476           O   tau( 476) = (   0.2893728   0.6805149   0.8847862  )
       477           O   tau( 477) = (   0.5393728   0.2475022   0.8847862  )
       478           O   tau( 478) = (   0.5393728   0.6805149   0.8847862  )
       479           O   tau( 479) = (   0.7893728   0.2475022   0.8847862  )
       480           O   tau( 480) = (   0.7893728   0.6805149   0.8847862  )
       481           Si  tau( 481) = (   0.1913582   0.1015707   0.9165988  )
       482           Si  tau( 482) = (   0.1913582   0.5345834   0.9165988  )
       483           Si  tau( 483) = (   0.4413582   0.1015707   0.9165988  )
       484           Si  tau( 484) = (   0.4413582   0.5345834   0.9165988  )
       485           Si  tau( 485) = (   0.6913582   0.1015707   0.9165988  )
       486           Si  tau( 486) = (   0.6913582   0.5345834   0.9165988  )
       487           Si  tau( 487) = (   0.9413582   0.1015707   0.9165988  )
       488           Si  tau( 488) = (   0.9413582   0.5345834   0.9165988  )
       489           Si  tau( 489) = (   0.0663582   0.3180770   0.9165988  )
       490           Si  tau( 490) = (   0.0663582   0.7510897   0.9165988  )
       491           Si  tau( 491) = (   0.3163582   0.3180770   0.9165988  )
       492           Si  tau( 492) = (   0.3163582   0.7510897   0.9165988  )
       493           Si  tau( 493) = (   0.5663582   0.3180770   0.9165988  )
       494           Si  tau( 494) = (   0.5663582   0.7510897   0.9165988  )
       495           Si  tau( 495) = (   0.8163582   0.3180770   0.9165988  )
       496           Si  tau( 496) = (   0.8163582   0.7510897   0.9165988  )
       497           O   tau( 497) = (   0.0159705   0.0896532   0.9484115  )
       498           O   tau( 498) = (   0.0159705   0.5226659   0.9484115  )
       499           O   tau( 499) = (   0.2659705   0.0896532   0.9484115  )
       500           O   tau( 500) = (   0.2659705   0.5226659   0.9484115  )
       501           O   tau( 501) = (   0.5159704   0.0896532   0.9484115  )
       502           O   tau( 502) = (   0.5159704   0.5226659   0.9484115  )
       503           O   tau( 503) = (   0.7659704   0.0896532   0.9484115  )
       504           O   tau( 504) = (   0.7659704   0.5226659   0.9484115  )
       505           O   tau( 505) = (   0.1409704   0.3061596   0.9484115  )
       506           O   tau( 506) = (   0.1409704   0.7391723   0.9484115  )
       507           O   tau( 507) = (   0.3909705   0.3061596   0.9484115  )
       508           O   tau( 508) = (   0.3909705   0.7391723   0.9484115  )
       509           O   tau( 509) = (   0.6409704   0.3061596   0.9484115  )
       510           O   tau( 510) = (   0.6409704   0.7391723   0.9484115  )
       511           O   tau( 511) = (   0.8909704   0.3061596   0.9484115  )
       512           O   tau( 512) = (   0.8909704   0.7391723   0.9484115  )
       513           O   tau( 513) = (   0.0159705   0.3433595   0.9764461  )
       514           O   tau( 514) = (   0.0159705   0.7763722   0.9764461  )
       515           O   tau( 515) = (   0.2659705   0.3433595   0.9764461  )
       516           O   tau( 516) = (   0.2659705   0.7763722   0.9764461  )
       517           O   tau( 517) = (   0.5159704   0.3433595   0.9764461  )
       518           O   tau( 518) = (   0.5159704   0.7763722   0.9764461  )
       519           O   tau( 519) = (   0.7659704   0.3433595   0.9764461  )
       520           O   tau( 520) = (   0.7659704   0.7763722   0.9764461  )
       521           O   tau( 521) = (   0.1409704   0.1268531   0.9764461  )
       522           O   tau( 522) = (   0.1409704   0.5598658   0.9764461  )
       523           O   tau( 523) = (   0.3909705   0.1268531   0.9764461  )
       524           O   tau( 524) = (   0.3909705   0.5598658   0.9764461  )
       525           O   tau( 525) = (   0.6409704   0.1268531   0.9764461  )
       526           O   tau( 526) = (   0.6409704   0.5598658   0.9764461  )
       527           O   tau( 527) = (   0.8909704   0.1268531   0.9764461  )
       528           O   tau( 528) = (   0.8909704   0.5598658   0.9764461  )
       529           Si  tau( 529) = (   0.1913582   0.3314420   1.0082587  )
       530           Si  tau( 530) = (   0.1913582   0.7644547   1.0082587  )
       531           Si  tau( 531) = (   0.4413582   0.3314420   1.0082587  )
       532           Si  tau( 532) = (   0.4413582   0.7644547   1.0082587  )
       533           Si  tau( 533) = (   0.6913582   0.3314420   1.0082587  )
       534           Si  tau( 534) = (   0.6913582   0.7644547   1.0082587  )
       535           Si  tau( 535) = (   0.9413582   0.3314420   1.0082587  )
       536           Si  tau( 536) = (   0.9413582   0.7644547   1.0082587  )
       537           Si  tau( 537) = (   0.0663582   0.1149357   1.0082587  )
       538           Si  tau( 538) = (   0.0663582   0.5479484   1.0082587  )
       539           Si  tau( 539) = (   0.3163582   0.1149357   1.0082587  )
       540           Si  tau( 540) = (   0.3163582   0.5479484   1.0082587  )
       541           Si  tau( 541) = (   0.5663582   0.1149357   1.0082587  )
       542           Si  tau( 542) = (   0.5663582   0.5479484   1.0082587  )
       543           Si  tau( 543) = (   0.8163582   0.1149357   1.0082587  )
       544           Si  tau( 544) = (   0.8163582   0.5479484   1.0082587  )
       545           O   tau( 545) = (   0.1643728   0.4020169   1.0400713  )
       546           O   tau( 546) = (   0.1643728   0.8350296   1.0400713  )
       547           O   tau( 547) = (   0.4143728   0.4020169   1.0400713  )
       548           O   tau( 548) = (   0.4143728   0.8350296   1.0400713  )
       549           O   tau( 549) = (   0.6643728   0.4020169   1.0400713  )
       550           O   tau( 550) = (   0.6643728   0.8350296   1.0400713  )
       551           O   tau( 551) = (   0.9143728   0.4020169   1.0400713  )
       552           O   tau( 552) = (   0.9143728   0.8350296   1.0400713  )
       553           O   tau( 553) = (   0.0393728   0.1855106   1.0400713  )
       554           O   tau( 554) = (   0.0393728   0.6185233   1.0400713  )
       555           O   tau( 555) = (   0.2893728   0.1855106   1.0400713  )
       556           O   tau( 556) = (   0.2893728   0.6185233   1.0400713  )
       557           O   tau( 557) = (   0.5393728   0.1855106   1.0400713  )
       558           O   tau( 558) = (   0.5393728   0.6185233   1.0400713  )
       559           O   tau( 559) = (   0.7893728   0.1855106   1.0400713  )
       560           O   tau( 560) = (   0.7893728   0.6185233   1.0400713  )
       561           O   tau( 561) = (   0.0696567   0.0586574   1.0681060  )
       562           O   tau( 562) = (   0.0696567   0.4916701   1.0681060  )
       563           O   tau( 563) = (   0.3196567   0.0586574   1.0681060  )
       564           O   tau( 564) = (   0.3196567   0.4916701   1.0681060  )
       565           O   tau( 565) = (   0.5696567   0.0586574   1.0681060  )
       566           O   tau( 566) = (   0.5696567   0.4916701   1.0681060  )
       567           O   tau( 567) = (   0.8196567   0.0586574   1.0681060  )
       568           O   tau( 568) = (   0.8196567   0.4916701   1.0681060  )
       569           O   tau( 569) = (   0.1946567   0.2751638   1.0681060  )
       570           O   tau( 570) = (   0.1946567   0.7081765   1.0681060  )
       571           O   tau( 571) = (   0.4446567   0.2751638   1.0681060  )
       572           O   tau( 572) = (   0.4446567   0.7081765   1.0681060  )
       573           O   tau( 573) = (   0.6946567   0.2751638   1.0681060  )
       574           O   tau( 574) = (   0.6946567   0.7081765   1.0681060  )
       575           O   tau( 575) = (   0.9446567   0.2751638   1.0681060  )
       576           O   tau( 576) = (   0.9446567   0.7081765   1.0681060  )
       577           Si  tau( 577) = (   0.1172837   0.0000000   1.0999186  )
       578           Si  tau( 578) = (   0.1172837   0.4330127   1.0999186  )
       579           Si  tau( 579) = (   0.3672837   0.0000000   1.0999186  )
       580           Si  tau( 580) = (   0.3672837   0.4330127   1.0999186  )
       581           Si  tau( 581) = (   0.6172837   0.0000000   1.0999186  )
       582           Si  tau( 582) = (   0.6172837   0.4330127   1.0999186  )
       583           Si  tau( 583) = (   0.8672837   0.0000000   1.0999186  )
       584           Si  tau( 584) = (   0.8672837   0.4330127   1.0999186  )
       585           Si  tau( 585) = (   0.2422837   0.2165063   1.0999186  )
       586           Si  tau( 586) = (   0.2422837   0.6495190   1.0999186  )
       587           Si  tau( 587) = (   0.4922837   0.2165063   1.0999186  )
       588           Si  tau( 588) = (   0.4922837   0.6495190   1.0999186  )
       589           Si  tau( 589) = (   0.7422837   0.2165063   1.0999186  )
       590           Si  tau( 590) = (   0.7422837   0.6495190   1.0999186  )
       591           Si  tau( 591) = (   0.9922837   0.2165063   1.0999186  )
       592           Si  tau( 592) = (   0.9922837   0.6495190   1.0999186  )
       593           O   tau( 593) = (   0.0696567   0.3743553   1.1317312  )
       594           O   tau( 594) = (   0.0696567   0.8073680   1.1317312  )
       595           O   tau( 595) = (   0.3196567   0.3743553   1.1317312  )
       596           O   tau( 596) = (   0.3196567   0.8073680   1.1317312  )
       597           O   tau( 597) = (   0.5696567   0.3743553   1.1317312  )
       598           O   tau( 598) = (   0.5696567   0.8073680   1.1317312  )
       599           O   tau( 599) = (   0.8196567   0.3743553   1.1317312  )
       600           O   tau( 600) = (   0.8196567   0.8073680   1.1317312  )
       601           O   tau( 601) = (   0.1946567   0.1578489   1.1317312  )
       602           O   tau( 602) = (   0.1946567   0.5908616   1.1317312  )
       603           O   tau( 603) = (   0.4446567   0.1578489   1.1317312  )
       604           O   tau( 604) = (   0.4446567   0.5908616   1.1317312  )
       605           O   tau( 605) = (   0.6946567   0.1578489   1.1317312  )
       606           O   tau( 606) = (   0.6946567   0.5908616   1.1317312  )
       607           O   tau( 607) = (   0.9446567   0.1578489   1.1317312  )
       608           O   tau( 608) = (   0.9446567   0.5908616   1.1317312  )
       609           O   tau( 609) = (   0.1643728   0.0309958   1.1597659  )
       610           O   tau( 610) = (   0.1643728   0.4640085   1.1597659  )
       611           O   tau( 611) = (   0.4143728   0.0309958   1.1597659  )
       612           O   tau( 612) = (   0.4143728   0.4640085   1.1597659  )
       613           O   tau( 613) = (   0.6643728   0.0309958   1.1597659  )
       614           O   tau( 614) = (   0.6643728   0.4640085   1.1597659  )
       615           O   tau( 615) = (   0.9143728   0.0309958   1.1597659  )
       616           O   tau( 616) = (   0.9143728   0.4640085   1.1597659  )
       617           O   tau( 617) = (   0.0393728   0.2475022   1.1597659  )
       618           O   tau( 618) = (   0.0393728   0.6805149   1.1597659  )
       619           O   tau( 619) = (   0.2893728   0.2475022   1.1597659  )
       620           O   tau( 620) = (   0.2893728   0.6805149   1.1597659  )
       621           O   tau( 621) = (   0.5393728   0.2475022   1.1597659  )
       622           O   tau( 622) = (   0.5393728   0.6805149   1.1597659  )
       623           O   tau( 623) = (   0.7893728   0.2475022   1.1597659  )
       624           O   tau( 624) = (   0.7893728   0.6805149   1.1597659  )
       625           Si  tau( 625) = (   0.1913582   0.1015707   1.1915785  )
       626           Si  tau( 626) = (   0.1913582   0.5345834   1.1915785  )
       627           Si  tau( 627) = (   0.4413582   0.1015707   1.1915785  )
       628           Si  tau( 628) = (   0.4413582   0.5345834   1.1915785  )
       629           Si  tau( 629) = (   0.6913582   0.1015707   1.1915785  )
       630           Si  tau( 630) = (   0.6913582   0.5345834   1.1915785  )
       631           Si  tau( 631) = (   0.9413582   0.1015707   1.1915785  )
       632           Si  tau( 632) = (   0.9413582   0.5345834   1.1915785  )
       633           Si  tau( 633) = (   0.0663582   0.3180770   1.1915785  )
       634           Si  tau( 634) = (   0.0663582   0.7510897   1.1915785  )
       635           Si  tau( 635) = (   0.3163582   0.3180770   1.1915785  )
       636           Si  tau( 636) = (   0.3163582   0.7510897   1.1915785  )
       637           Si  tau( 637) = (   0.5663582   0.3180770   1.1915785  )
       638           Si  tau( 638) = (   0.5663582   0.7510897   1.1915785  )
       639           Si  tau( 639) = (   0.8163582   0.3180770   1.1915785  )
       640           Si  tau( 640) = (   0.8163582   0.7510897   1.1915785  )
       641           O   tau( 641) = (   0.0159705   0.0896532   1.2233911  )
       642           O   tau( 642) = (   0.0159705   0.5226659   1.2233911  )
       643           O   tau( 643) = (   0.2659705   0.0896532   1.2233911  )
       644           O   tau( 644) = (   0.2659705   0.5226659   1.2233911  )
       645           O   tau( 645) = (   0.5159704   0.0896532   1.2233911  )
       646           O   tau( 646) = (   0.5159704   0.5226659   1.2233911  )
       647           O   tau( 647) = (   0.7659704   0.0896532   1.2233911  )
       648           O   tau( 648) = (   0.7659704   0.5226659   1.2233911  )
       649           O   tau( 649) = (   0.1409704   0.3061596   1.2233911  )
       650           O   tau( 650) = (   0.1409704   0.7391723   1.2233911  )
       651           O   tau( 651) = (   0.3909705   0.3061596   1.2233911  )
       652           O   tau( 652) = (   0.3909705   0.7391723   1.2233911  )
       653           O   tau( 653) = (   0.6409704   0.3061596   1.2233911  )
       654           O   tau( 654) = (   0.6409704   0.7391723   1.2233911  )
       655           O   tau( 655) = (   0.8909704   0.3061596   1.2233911  )
       656           O   tau( 656) = (   0.8909704   0.7391723   1.2233911  )
       657           O   tau( 657) = (   0.0159705   0.3433595   1.2514257  )
       658           O   tau( 658) = (   0.0159705   0.7763722   1.2514257  )
       659           O   tau( 659) = (   0.2659705   0.3433595   1.2514257  )
       660           O   tau( 660) = (   0.2659705   0.7763722   1.2514257  )
       661           O   tau( 661) = (   0.5159704   0.3433595   1.2514257  )
       662           O   tau( 662) = (   0.5159704   0.7763722   1.2514257  )
       663           O   tau( 663) = (   0.7659704   0.3433595   1.2514257  )
       664           O   tau( 664) = (   0.7659704   0.7763722   1.2514257  )
       665           O   tau( 665) = (   0.1409704   0.1268531   1.2514257  )
       666           O   tau( 666) = (   0.1409704   0.5598658   1.2514257  )
       667           O   tau( 667) = (   0.3909705   0.1268531   1.2514257  )
       668           O   tau( 668) = (   0.3909705   0.5598658   1.2514257  )
       669           O   tau( 669) = (   0.6409704   0.1268531   1.2514257  )
       670           O   tau( 670) = (   0.6409704   0.5598658   1.2514257  )
       671           O   tau( 671) = (   0.8909704   0.1268531   1.2514257  )
       672           O   tau( 672) = (   0.8909704   0.5598658   1.2514257  )
       673           Si  tau( 673) = (   0.1913582   0.3314420   1.2832384  )
       674           Si  tau( 674) = (   0.1913582   0.7644547   1.2832384  )
       675           Si  tau( 675) = (   0.4413582   0.3314420   1.2832384  )
       676           Si  tau( 676) = (   0.4413582   0.7644547   1.2832384  )
       677           Si  tau( 677) = (   0.6913582   0.3314420   1.2832384  )
       678           Si  tau( 678) = (   0.6913582   0.7644547   1.2832384  )
       679           Si  tau( 679) = (   0.9413582   0.3314420   1.2832384  )
       680           Si  tau( 680) = (   0.9413582   0.7644547   1.2832384  )
       681           Si  tau( 681) = (   0.0663582   0.1149357   1.2832384  )
       682           Si  tau( 682) = (   0.0663582   0.5479484   1.2832384  )
       683           Si  tau( 683) = (   0.3163582   0.1149357   1.2832384  )
       684           Si  tau( 684) = (   0.3163582   0.5479484   1.2832384  )
       685           Si  tau( 685) = (   0.5663582   0.1149357   1.2832384  )
       686           Si  tau( 686) = (   0.5663582   0.5479484   1.2832384  )
       687           Si  tau( 687) = (   0.8163582   0.1149357   1.2832384  )
       688           Si  tau( 688) = (   0.8163582   0.5479484   1.2832384  )
       689           O   tau( 689) = (   0.1643728   0.4020169   1.3150510  )
       690           O   tau( 690) = (   0.1643728   0.8350296   1.3150510  )
       691           O   tau( 691) = (   0.4143728   0.4020169   1.3150510  )
       692           O   tau( 692) = (   0.4143728   0.8350296   1.3150510  )
       693           O   tau( 693) = (   0.6643728   0.4020169   1.3150510  )
       694           O   tau( 694) = (   0.6643728   0.8350296   1.3150510  )
       695           O   tau( 695) = (   0.9143728   0.4020169   1.3150510  )
       696           O   tau( 696) = (   0.9143728   0.8350296   1.3150510  )
       697           O   tau( 697) = (   0.0393728   0.1855106   1.3150510  )
       698           O   tau( 698) = (   0.0393728   0.6185233   1.3150510  )
       699           O   tau( 699) = (   0.2893728   0.1855106   1.3150510  )
       700           O   tau( 700) = (   0.2893728   0.6185233   1.3150510  )
       701           O   tau( 701) = (   0.5393728   0.1855106   1.3150510  )
       702           O   tau( 702) = (   0.5393728   0.6185233   1.3150510  )
       703           O   tau( 703) = (   0.7893728   0.1855106   1.3150510  )
       704           O   tau( 704) = (   0.7893728   0.6185233   1.3150510  )
       705           O   tau( 705) = (   0.0696567   0.0586574   1.3430856  )
       706           O   tau( 706) = (   0.0696567   0.4916701   1.3430856  )
       707           O   tau( 707) = (   0.3196567   0.0586574   1.3430856  )
       708           O   tau( 708) = (   0.3196567   0.4916701   1.3430856  )
       709           O   tau( 709) = (   0.5696567   0.0586574   1.3430856  )
       710           O   tau( 710) = (   0.5696567   0.4916701   1.3430856  )
       711           O   tau( 711) = (   0.8196567   0.0586574   1.3430856  )
       712           O   tau( 712) = (   0.8196567   0.4916701   1.3430856  )
       713           O   tau( 713) = (   0.1946567   0.2751638   1.3430856  )
       714           O   tau( 714) = (   0.1946567   0.7081765   1.3430856  )
       715           O   tau( 715) = (   0.4446567   0.2751638   1.3430856  )
       716           O   tau( 716) = (   0.4446567   0.7081765   1.3430856  )
       717           O   tau( 717) = (   0.6946567   0.2751638   1.3430856  )
       718           O   tau( 718) = (   0.6946567   0.7081765   1.3430856  )
       719           O   tau( 719) = (   0.9446567   0.2751638   1.3430856  )
       720           O   tau( 720) = (   0.9446567   0.7081765   1.3430856  )
       721           Si  tau( 721) = (   0.1172837   0.0000000   1.3748982  )
       722           Si  tau( 722) = (   0.1172837   0.4330127   1.3748982  )
       723           Si  tau( 723) = (   0.3672837   0.0000000   1.3748982  )
       724           Si  tau( 724) = (   0.3672837   0.4330127   1.3748982  )
       725           Si  tau( 725) = (   0.6172837   0.0000000   1.3748982  )
       726           Si  tau( 726) = (   0.6172837   0.4330127   1.3748982  )
       727           Si  tau( 727) = (   0.8672837   0.0000000   1.3748982  )
       728           Si  tau( 728) = (   0.8672837   0.4330127   1.3748982  )
       729           Si  tau( 729) = (   0.2422837   0.2165063   1.3748982  )
       730           Si  tau( 730) = (   0.2422837   0.6495190   1.3748982  )
       731           Si  tau( 731) = (   0.4922837   0.2165063   1.3748982  )
       732           Si  tau( 732) = (   0.4922837   0.6495190   1.3748982  )
       733           Si  tau( 733) = (   0.7422837   0.2165063   1.3748982  )
       734           Si  tau( 734) = (   0.7422837   0.6495190   1.3748982  )
       735           Si  tau( 735) = (   0.9922837   0.2165063   1.3748982  )
       736           Si  tau( 736) = (   0.9922837   0.6495190   1.3748982  )
       737           O   tau( 737) = (   0.0696567   0.3743553   1.4067109  )
       738           O   tau( 738) = (   0.0696567   0.8073680   1.4067109  )
       739           O   tau( 739) = (   0.3196567   0.3743553   1.4067109  )
       740           O   tau( 740) = (   0.3196567   0.8073680   1.4067109  )
       741           O   tau( 741) = (   0.5696567   0.3743553   1.4067109  )
       742           O   tau( 742) = (   0.5696567   0.8073680   1.4067109  )
       743           O   tau( 743) = (   0.8196567   0.3743553   1.4067109  )
       744           O   tau( 744) = (   0.8196567   0.8073680   1.4067109  )
       745           O   tau( 745) = (   0.1946567   0.1578489   1.4067109  )
       746           O   tau( 746) = (   0.1946567   0.5908616   1.4067109  )
       747           O   tau( 747) = (   0.4446567   0.1578489   1.4067109  )
       748           O   tau( 748) = (   0.4446567   0.5908616   1.4067109  )
       749           O   tau( 749) = (   0.6946567   0.1578489   1.4067109  )
       750           O   tau( 750) = (   0.6946567   0.5908616   1.4067109  )
       751           O   tau( 751) = (   0.9446567   0.1578489   1.4067109  )
       752           O   tau( 752) = (   0.9446567   0.5908616   1.4067109  )
       753           O   tau( 753) = (   0.1643728   0.0309958   1.4347455  )
       754           O   tau( 754) = (   0.1643728   0.4640085   1.4347455  )
       755           O   tau( 755) = (   0.4143728   0.0309958   1.4347455  )
       756           O   tau( 756) = (   0.4143728   0.4640085   1.4347455  )
       757           O   tau( 757) = (   0.6643728   0.0309958   1.4347455  )
       758           O   tau( 758) = (   0.6643728   0.4640085   1.4347455  )
       759           O   tau( 759) = (   0.9143728   0.0309958   1.4347455  )
       760           O   tau( 760) = (   0.9143728   0.4640085   1.4347455  )
       761           O   tau( 761) = (   0.0393728   0.2475022   1.4347455  )
       762           O   tau( 762) = (   0.0393728   0.6805149   1.4347455  )
       763           O   tau( 763) = (   0.2893728   0.2475022   1.4347455  )
       764           O   tau( 764) = (   0.2893728   0.6805149   1.4347455  )
       765           O   tau( 765) = (   0.5393728   0.2475022   1.4347455  )
       766           O   tau( 766) = (   0.5393728   0.6805149   1.4347455  )
       767           O   tau( 767) = (   0.7893728   0.2475022   1.4347455  )
       768           O   tau( 768) = (   0.7893728   0.6805149   1.4347455  )
       769           Si  tau( 769) = (   0.1913582   0.1015707   1.4665581  )
       770           Si  tau( 770) = (   0.1913582   0.5345834   1.4665581  )
       771           Si  tau( 771) = (   0.4413582   0.1015707   1.4665581  )
       772           Si  tau( 772) = (   0.4413582   0.5345834   1.4665581  )
       773           Si  tau( 773) = (   0.6913582   0.1015707   1.4665581  )
       774           Si  tau( 774) = (   0.6913582   0.5345834   1.4665581  )
       775           Si  tau( 775) = (   0.9413582   0.1015707   1.4665581  )
       776           Si  tau( 776) = (   0.9413582   0.5345834   1.4665581  )
       777           Si  tau( 777) = (   0.0663582   0.3180770   1.4665581  )
       778           Si  tau( 778) = (   0.0663582   0.7510897   1.4665581  )
       779           Si  tau( 779) = (   0.3163582   0.3180770   1.4665581  )
       780           Si  tau( 780) = (   0.3163582   0.7510897   1.4665581  )
       781           Si  tau( 781) = (   0.5663582   0.3180770   1.4665581  )
       782           Si  tau( 782) = (   0.5663582   0.7510897   1.4665581  )
       783           Si  tau( 783) = (   0.8163582   0.3180770   1.4665581  )
       784           Si  tau( 784) = (   0.8163582   0.7510897   1.4665581  )
       785           O   tau( 785) = (   0.0159705   0.0896532   1.4983708  )
       786           O   tau( 786) = (   0.0159705   0.5226659   1.4983708  )
       787           O   tau( 787) = (   0.2659705   0.0896532   1.4983708  )
       788           O   tau( 788) = (   0.2659705   0.5226659   1.4983708  )
       789           O   tau( 789) = (   0.5159704   0.0896532   1.4983708  )
       790           O   tau( 790) = (   0.5159704   0.5226659   1.4983708  )
       791           O   tau( 791) = (   0.7659704   0.0896532   1.4983708  )
       792           O   tau( 792) = (   0.7659704   0.5226659   1.4983708  )
       793           O   tau( 793) = (   0.1409704   0.3061596   1.4983708  )
       794           O   tau( 794) = (   0.1409704   0.7391723   1.4983708  )
       795           O   tau( 795) = (   0.3909705   0.3061596   1.4983708  )
       796           O   tau( 796) = (   0.3909705   0.7391723   1.4983708  )
       797           O   tau( 797) = (   0.6409704   0.3061596   1.4983708  )
       798           O   tau( 798) = (   0.6409704   0.7391723   1.4983708  )
       799           O   tau( 799) = (   0.8909704   0.3061596   1.4983708  )
       800           O   tau( 800) = (   0.8909704   0.7391723   1.4983708  )
       801           O   tau( 801) = (   0.0159705   0.3433595   1.5264054  )
       802           O   tau( 802) = (   0.0159705   0.7763722   1.5264054  )
       803           O   tau( 803) = (   0.2659705   0.3433595   1.5264054  )
       804           O   tau( 804) = (   0.2659705   0.7763722   1.5264054  )
       805           O   tau( 805) = (   0.5159704   0.3433595   1.5264054  )
       806           O   tau( 806) = (   0.5159704   0.7763722   1.5264054  )
       807           O   tau( 807) = (   0.7659704   0.3433595   1.5264054  )
       808           O   tau( 808) = (   0.7659704   0.7763722   1.5264054  )
       809           O   tau( 809) = (   0.1409704   0.1268531   1.5264054  )
       810           O   tau( 810) = (   0.1409704   0.5598658   1.5264054  )
       811           O   tau( 811) = (   0.3909705   0.1268531   1.5264054  )
       812           O   tau( 812) = (   0.3909705   0.5598658   1.5264054  )
       813           O   tau( 813) = (   0.6409704   0.1268531   1.5264054  )
       814           O   tau( 814) = (   0.6409704   0.5598658   1.5264054  )
       815           O   tau( 815) = (   0.8909704   0.1268531   1.5264054  )
       816           O   tau( 816) = (   0.8909704   0.5598658   1.5264054  )
       817           Si  tau( 817) = (   0.1913582   0.3314420   1.5582180  )
       818           Si  tau( 818) = (   0.1913582   0.7644547   1.5582180  )
       819           Si  tau( 819) = (   0.4413582   0.3314420   1.5582180  )
       820           Si  tau( 820) = (   0.4413582   0.7644547   1.5582180  )
       821           Si  tau( 821) = (   0.6913582   0.3314420   1.5582180  )
       822           Si  tau( 822) = (   0.6913582   0.7644547   1.5582180  )
       823           Si  tau( 823) = (   0.9413582   0.3314420   1.5582180  )
       824           Si  tau( 824) = (   0.9413582   0.7644547   1.5582180  )
       825           Si  tau( 825) = (   0.0663582   0.1149357   1.5582180  )
       826           Si  tau( 826) = (   0.0663582   0.5479484   1.5582180  )
       827           Si  tau( 827) = (   0.3163582   0.1149357   1.5582180  )
       828           Si  tau( 828) = (   0.3163582   0.5479484   1.5582180  )
       829           Si  tau( 829) = (   0.5663582   0.1149357   1.5582180  )
       830           Si  tau( 830) = (   0.5663582   0.5479484   1.5582180  )
       831           Si  tau( 831) = (   0.8163582   0.1149357   1.5582180  )
       832           Si  tau( 832) = (   0.8163582   0.5479484   1.5582180  )
       833           O   tau( 833) = (   0.1643728   0.4020169   1.5900306  )
       834           O   tau( 834) = (   0.1643728   0.8350296   1.5900306  )
       835           O   tau( 835) = (   0.4143728   0.4020169   1.5900306  )
       836           O   tau( 836) = (   0.4143728   0.8350296   1.5900306  )
       837           O   tau( 837) = (   0.6643728   0.4020169   1.5900306  )
       838           O   tau( 838) = (   0.6643728   0.8350296   1.5900306  )
       839           O   tau( 839) = (   0.9143728   0.4020169   1.5900306  )
       840           O   tau( 840) = (   0.9143728   0.8350296   1.5900306  )
       841           O   tau( 841) = (   0.0393728   0.1855106   1.5900306  )
       842           O   tau( 842) = (   0.0393728   0.6185233   1.5900306  )
       843           O   tau( 843) = (   0.2893728   0.1855106   1.5900306  )
       844           O   tau( 844) = (   0.2893728   0.6185233   1.5900306  )
       845           O   tau( 845) = (   0.5393728   0.1855106   1.5900306  )
       846           O   tau( 846) = (   0.5393728   0.6185233   1.5900306  )
       847           O   tau( 847) = (   0.7893728   0.1855106   1.5900306  )
       848           O   tau( 848) = (   0.7893728   0.6185233   1.5900306  )
       849           O   tau( 849) = (   0.0696567   0.0586574   1.6180653  )
       850           O   tau( 850) = (   0.0696567   0.4916701   1.6180653  )
       851           O   tau( 851) = (   0.3196567   0.0586574   1.6180653  )
       852           O   tau( 852) = (   0.3196567   0.4916701   1.6180653  )
       853           O   tau( 853) = (   0.5696567   0.0586574   1.6180653  )
       854           O   tau( 854) = (   0.5696567   0.4916701   1.6180653  )
       855           O   tau( 855) = (   0.8196567   0.0586574   1.6180653  )
       856           O   tau( 856) = (   0.8196567   0.4916701   1.6180653  )
       857           O   tau( 857) = (   0.1946567   0.2751638   1.6180653  )
       858           O   tau( 858) = (   0.1946567   0.7081765   1.6180653  )
       859           O   tau( 859) = (   0.4446567   0.2751638   1.6180653  )
       860           O   tau( 860) = (   0.4446567   0.7081765   1.6180653  )
       861           O   tau( 861) = (   0.6946567   0.2751638   1.6180653  )
       862           O   tau( 862) = (   0.6946567   0.7081765   1.6180653  )
       863           O   tau( 863) = (   0.9446567   0.2751638   1.6180653  )
       864           O   tau( 864) = (   0.9446567   0.7081765   1.6180653  )
       865           Si  tau( 865) = (   0.1172837   0.0000000   1.6498779  )
       866           Si  tau( 866) = (   0.1172837   0.4330127   1.6498779  )
       867           Si  tau( 867) = (   0.3672837   0.0000000   1.6498779  )
       868           Si  tau( 868) = (   0.3672837   0.4330127   1.6498779  )
       869           Si  tau( 869) = (   0.6172837   0.0000000   1.6498779  )
       870           Si  tau( 870) = (   0.6172837   0.4330127   1.6498779  )
       871           Si  tau( 871) = (   0.8672837   0.0000000   1.6498779  )
       872           Si  tau( 872) = (   0.8672837   0.4330127   1.6498779  )
       873           Si  tau( 873) = (   0.2422837   0.2165063   1.6498779  )
       874           Si  tau( 874) = (   0.2422837   0.6495190   1.6498779  )
       875           Si  tau( 875) = (   0.4922837   0.2165063   1.6498779  )
       876           Si  tau( 876) = (   0.4922837   0.6495190   1.6498779  )
       877           Si  tau( 877) = (   0.7422837   0.2165063   1.6498779  )
       878           Si  tau( 878) = (   0.7422837   0.6495190   1.6498779  )
       879           Si  tau( 879) = (   0.9922837   0.2165063   1.6498779  )
       880           Si  tau( 880) = (   0.9922837   0.6495190   1.6498779  )
       881           O   tau( 881) = (   0.0696567   0.3743553   1.6816905  )
       882           O   tau( 882) = (   0.0696567   0.8073680   1.6816905  )
       883           O   tau( 883) = (   0.3196567   0.3743553   1.6816905  )
       884           O   tau( 884) = (   0.3196567   0.8073680   1.6816905  )
       885           O   tau( 885) = (   0.5696567   0.3743553   1.6816905  )
       886           O   tau( 886) = (   0.5696567   0.8073680   1.6816905  )
       887           O   tau( 887) = (   0.8196567   0.3743553   1.6816905  )
       888           O   tau( 888) = (   0.8196567   0.8073680   1.6816905  )
       889           O   tau( 889) = (   0.1946567   0.1578489   1.6816905  )
       890           O   tau( 890) = (   0.1946567   0.5908616   1.6816905  )
       891           O   tau( 891) = (   0.4446567   0.1578489   1.6816905  )
       892           O   tau( 892) = (   0.4446567   0.5908616   1.6816905  )
       893           O   tau( 893) = (   0.6946567   0.1578489   1.6816905  )
       894           O   tau( 894) = (   0.6946567   0.5908616   1.6816905  )
       895           O   tau( 895) = (   0.9446567   0.1578489   1.6816905  )
       896           O   tau( 896) = (   0.9446567   0.5908616   1.6816905  )
       897           O   tau( 897) = (   0.1643728   0.0309958   1.7097252  )
       898           O   tau( 898) = (   0.1643728   0.4640085   1.7097252  )
       899           O   tau( 899) = (   0.4143728   0.0309958   1.7097252  )
       900           O   tau( 900) = (   0.4143728   0.4640085   1.7097252  )
       901           O   tau( 901) = (   0.6643728   0.0309958   1.7097252  )
       902           O   tau( 902) = (   0.6643728   0.4640085   1.7097252  )
       903           O   tau( 903) = (   0.9143728   0.0309958   1.7097252  )
       904           O   tau( 904) = (   0.9143728   0.4640085   1.7097252  )
       905           O   tau( 905) = (   0.0393728   0.2475022   1.7097252  )
       906           O   tau( 906) = (   0.0393728   0.6805149   1.7097252  )
       907           O   tau( 907) = (   0.2893728   0.2475022   1.7097252  )
       908           O   tau( 908) = (   0.2893728   0.6805149   1.7097252  )
       909           O   tau( 909) = (   0.5393728   0.2475022   1.7097252  )
       910           O   tau( 910) = (   0.5393728   0.6805149   1.7097252  )
       911           O   tau( 911) = (   0.7893728   0.2475022   1.7097252  )
       912           O   tau( 912) = (   0.7893728   0.6805149   1.7097252  )
       913           Si  tau( 913) = (   0.1913582   0.1015707   1.7415378  )
       914           Si  tau( 914) = (   0.1913582   0.5345834   1.7415378  )
       915           Si  tau( 915) = (   0.4413582   0.1015707   1.7415378  )
       916           Si  tau( 916) = (   0.4413582   0.5345834   1.7415378  )
       917           Si  tau( 917) = (   0.6913582   0.1015707   1.7415378  )
       918           Si  tau( 918) = (   0.6913582   0.5345834   1.7415378  )
       919           Si  tau( 919) = (   0.9413582   0.1015707   1.7415378  )
       920           Si  tau( 920) = (   0.9413582   0.5345834   1.7415378  )
       921           Si  tau( 921) = (   0.0663582   0.3180770   1.7415378  )
       922           Si  tau( 922) = (   0.0663582   0.7510897   1.7415378  )
       923           Si  tau( 923) = (   0.3163582   0.3180770   1.7415378  )
       924           Si  tau( 924) = (   0.3163582   0.7510897   1.7415378  )
       925           Si  tau( 925) = (   0.5663582   0.3180770   1.7415378  )
       926           Si  tau( 926) = (   0.5663582   0.7510897   1.7415378  )
       927           Si  tau( 927) = (   0.8163582   0.3180770   1.7415378  )
       928           Si  tau( 928) = (   0.8163582   0.7510897   1.7415378  )
       929           O   tau( 929) = (   0.0159705   0.0896532   1.7733504  )
       930           O   tau( 930) = (   0.0159705   0.5226659   1.7733504  )
       931           O   tau( 931) = (   0.2659705   0.0896532   1.7733504  )
       932           O   tau( 932) = (   0.2659705   0.5226659   1.7733504  )
       933           O   tau( 933) = (   0.5159704   0.0896532   1.7733504  )
       934           O   tau( 934) = (   0.5159704   0.5226659   1.7733504  )
       935           O   tau( 935) = (   0.7659704   0.0896532   1.7733504  )
       936           O   tau( 936) = (   0.7659704   0.5226659   1.7733504  )
       937           O   tau( 937) = (   0.1409704   0.3061596   1.7733504  )
       938           O   tau( 938) = (   0.1409704   0.7391723   1.7733504  )
       939           O   tau( 939) = (   0.3909705   0.3061596   1.7733504  )
       940           O   tau( 940) = (   0.3909705   0.7391723   1.7733504  )
       941           O   tau( 941) = (   0.6409704   0.3061596   1.7733504  )
       942           O   tau( 942) = (   0.6409704   0.7391723   1.7733504  )
       943           O   tau( 943) = (   0.8909704   0.3061596   1.7733504  )
       944           O   tau( 944) = (   0.8909704   0.7391723   1.7733504  )
       945           O   tau( 945) = (   0.0159705   0.3433595   1.8013850  )
       946           O   tau( 946) = (   0.0159705   0.7763722   1.8013850  )
       947           O   tau( 947) = (   0.2659705   0.3433595   1.8013850  )
       948           O   tau( 948) = (   0.2659705   0.7763722   1.8013850  )
       949           O   tau( 949) = (   0.5159704   0.3433595   1.8013850  )
       950           O   tau( 950) = (   0.5159704   0.7763722   1.8013850  )
       951           O   tau( 951) = (   0.7659704   0.3433595   1.8013850  )
[...]
     atom  942 type  2   force =    -0.00000002    0.00000025    0.00000010
     atom  943 type  2   force =    -0.00000003    0.00000013    0.00000007
     atom  944 type  2   force =    -0.00000007    0.00000016    0.00000009
     atom  945 type  2   force =     0.00000003   -0.00000024   -0.00000004
     atom  946 type  2   force =    -0.00000002   -0.00000021   -0.00000012
     atom  947 type  2   force =     0.00000007   -0.00000025   -0.00000014
     atom  948 type  2   force =     0.00000004   -0.00000010   -0.00000016
     atom  949 type  2   force =    -0.00000007   -0.00000020   -0.00000016
     atom  950 type  2   force =    -0.00000009   -0.00000008   -0.00000011
     atom  951 type  2   force =    -0.00000004   -0.00000025   -0.00000012
     atom  952 type  2   force =    -0.00000003   -0.00000021   -0.00000008
     atom  953 type  2   force =     0.00000001   -0.00000022   -0.00000007
     atom  954 type  2   force =    -0.00000000   -0.00000025   -0.00000012
     atom  955 type  2   force =    -0.00000003   -0.00000028   -0.00000013
     atom  956 type  2   force =    -0.00000006   -0.00000025   -0.00000015
     atom  957 type  2   force =     0.00000001   -0.00000020   -0.00000009
     atom  958 type  2   force =     0.00000002   -0.00000026   -0.00000016
     atom  959 type  2   force =    -0.00000002   -0.00000016   -0.00000012
     atom  960 type  2   force =    -0.00000003   -0.00000017   -0.00000009
     atom  961 type  1   force =     0.00000001   -0.00000010   -0.00000007
     atom  962 type  1   force =     0.00000008    0.00000005   -0.00000006
     atom  963 type  1   force =    -0.00000005   -0.00000003   -0.00000004
     atom  964 type  1   force =    -0.00000004    0.00000002   -0.00000004
     atom  965 type  1   force =    -0.00000001   -0.00000006   -0.00000002
     atom  966 type  1   force =     0.00000002   -0.00000003   -0.00000001
     atom  967 type  1   force =     0.00000005   -0.00000013   -0.00000004
     atom  968 type  1   force =    -0.00000008   -0.00000005   -0.00000002
     atom  969 type  1   force =     0.00000002    0.00000003   -0.00000003
     atom  970 type  1   force =    -0.00000001   -0.00000005   -0.00000001
     atom  971 type  1   force =    -0.00000001   -0.00000009   -0.00000003
     atom  972 type  1   force =     0.00000001   -0.00000001   -0.00000001
     atom  973 type  1   force =    -0.00000001   -0.00000007   -0.00000003
     atom  974 type  1   force =    -0.00000001   -0.00000014   -0.00000005
     atom  975 type  1   force =    -0.00000002   -0.00000001   -0.00000001
     atom  976 type  1   force =     0.00000000    0.00000003    0.00000001
     atom  977 type  2   force =    -0.00000018   -0.00000016    0.00000011
     atom  978 type  2   force =    -0.00000007   -0.00000006    0.00000003
     atom  979 type  2   force =    -0.00000021   -0.00000014    0.00000010
     atom  980 type  2   force =    -0.00000019   -0.00000011   -0.00000001
     atom  981 type  2   force =    -0.00000018   -0.00000012    0.00000010
     atom  982 type  2   force =    -0.00000022   -0.00000013    0.00000014
     atom  983 type  2   force =    -0.00000019   -0.00000021    0.00000017
     atom  984 type  2   force =    -0.00000023   -0.00000009    0.00000013
     atom  985 type  2   force =    -0.00000014   -0.00000008    0.00000009
     atom  986 type  2   force =    -0.00000019   -0.00000016    0.00000013
     atom  987 type  2   force =    -0.00000021   -0.00000014    0.00000013
     atom  988 type  2   force =    -0.00000007   -0.00000012    0.00000005
     atom  989 type  2   force =    -0.00000013   -0.00000013    0.00000009
     atom  990 type  2   force =    -0.00000025   -0.00000019    0.00000020
     atom  991 type  2   force =    -0.00000019   -0.00000013    0.00000014
     atom  992 type  2   force =    -0.00000019   -0.00000010    0.00000011
     atom  993 type  2   force =     0.00000029    0.00000012   -0.00000014
     atom  994 type  2   force =     0.00000016    0.00000009   -0.00000009
     atom  995 type  2   force =     0.00000014    0.00000005   -0.00000015
     atom  996 type  2   force =     0.00000025    0.00000007   -0.00000013
     atom  997 type  2   force =     0.00000018    0.00000003   -0.00000012
     atom  998 type  2   force =     0.00000011    0.00000009   -0.00000007
     atom  999 type  2   force =     0.00000017    0.00000012   -0.00000008
     atom 1000 type  2   force =     0.00000016    0.00000014   -0.00000005
     atom 1001 type  2   force =     0.00000020    0.00000000   -0.00000010
     atom 1002 type  2   force =     0.00000026    0.00000016   -0.00000014
     atom 1003 type  2   force =     0.00000013    0.00000015   -0.00000011
     atom 1004 type  2   force =     0.00000012    0.00000014   -0.00000010
     atom 1005 type  2   force =     0.00000017    0.00000003   -0.00000002
     atom 1006 type  2   force =     0.00000020    0.00000011   -0.00000009
     atom 1007 type  2   force =     0.00000025    0.00000006   -0.00000011
     atom 1008 type  2   force =     0.00000015    0.00000007   -0.00000009
     atom 1009 type  1   force =     0.00000010   -0.00000001    0.00000003
     atom 1010 type  1   force =     0.00000000    0.00000001    0.00000010
     atom 1011 type  1   force =    -0.00000002   -0.00000001   -0.00000006
     atom 1012 type  1   force =     0.00000003    0.00000001    0.00000002
     atom 1013 type  1   force =    -0.00000003    0.00000001   -0.00000001
     atom 1014 type  1   force =     0.00000006    0.00000007    0.00000001
     atom 1015 type  1   force =    -0.00000000    0.00000001    0.00000004
     atom 1016 type  1   force =    -0.00000007   -0.00000003    0.00000013
     atom 1017 type  1   force =     0.00000000   -0.00000001    0.00000003
     atom 1018 type  1   force =     0.00000012    0.00000001    0.00000003
     atom 1019 type  1   force =     0.00000008    0.00000005    0.00000007
     atom 1020 type  1   force =    -0.00000004    0.00000005    0.00000010
     atom 1021 type  1   force =    -0.00000000    0.00000000    0.00000003
     atom 1022 type  1   force =     0.00000002    0.00000001    0.00000000
     atom 1023 type  1   force =     0.00000006    0.00000005   -0.00000002
     atom 1024 type  1   force =     0.00000004    0.00000003    0.00000001
     atom 1025 type  2   force =     0.00000019   -0.00000014    0.00000018
     atom 1026 type  2   force =     0.00000022   -0.00000009    0.00000018
     atom 1027 type  2   force =     0.00000023   -0.00000009    0.00000010
     atom 1028 type  2   force =     0.00000018   -0.00000004    0.00000005
     atom 1029 type  2   force =     0.00000028   -0.00000011    0.00000017
     atom 1030 type  2   force =     0.00000019   -0.00000007    0.00000008
     atom 1031 type  2   force =     0.00000012   -0.00000011    0.00000021
     atom 1032 type  2   force =     0.00000016   -0.00000008    0.00000012
     atom 1033 type  2   force =     0.00000023   -0.00000009    0.00000007
     atom 1034 type  2   force =     0.00000024   -0.00000012    0.00000015
     atom 1035 type  2   force =     0.00000024   -0.00000001    0.00000020
     atom 1036 type  2   force =     0.00000016   -0.00000009    0.00000017
     atom 1037 type  2   force =     0.00000021   -0.00000004    0.00000017
     atom 1038 type  2   force =     0.00000020   -0.00000008    0.00000013
     atom 1039 type  2   force =     0.00000022   -0.00000004    0.00000010
     atom 1040 type  2   force =     0.00000025   -0.00000011    0.00000012
     atom 1041 type  2   force =    -0.00000008    0.00000013   -0.00000007
     atom 1042 type  2   force =    -0.00000016    0.00000008    0.00000000
     atom 1043 type  2   force =    -0.00000024    0.00000010   -0.00000011
     atom 1044 type  2   force =    -0.00000017    0.00000012   -0.00000009
     atom 1045 type  2   force =    -0.00000020    0.00000015   -0.00000012
     atom 1046 type  2   force =    -0.00000013    0.00000012   -0.00000004
     atom 1047 type  2   force =    -0.00000020    0.00000011   -0.00000008
     atom 1048 type  2   force =    -0.00000017    0.00000012   -0.00000005
     atom 1049 type  2   force =    -0.00000015    0.00000016   -0.00000013
     atom 1050 type  2   force =    -0.00000017    0.00000012   -0.00000009
     atom 1051 type  2   force =    -0.00000017    0.00000011   -0.00000011
     atom 1052 type  2   force =    -0.00000004    0.00000010    0.00000001
     atom 1053 type  2   force =    -0.00000011    0.00000004    0.00000008
     atom 1054 type  2   force =    -0.00000015    0.00000010    0.00000001
     atom 1055 type  2   force =    -0.00000024    0.00000009   -0.00000007
     atom 1056 type  2   force =    -0.00000023    0.00000011   -0.00000013
     atom 1057 type  1   force =     0.00000005   -0.00000002   -0.00000003
     atom 1058 type  1   force =     0.00000003   -0.00000004    0.00000005
     atom 1059 type  1   force =     0.00000001    0.00000005    0.00000015
     atom 1060 type  1   force =    -0.00000002    0.00000003    0.00000006
     atom 1061 type  1   force =    -0.00000000    0.00000008    0.00000004
     atom 1062 type  1   force =    -0.00000002    0.00000000    0.00000003
     atom 1063 type  1   force =    -0.00000002   -0.00000002    0.00000006
     atom 1064 type  1   force =     0.00000003   -0.00000003    0.00000007
     atom 1065 type  1   force =    -0.00000002    0.00000003    0.00000001
     atom 1066 type  1   force =    -0.00000007    0.00000007    0.00000006
     atom 1067 type  1   force =     0.00000002    0.00000001    0.00000004
     atom 1068 type  1   force =     0.00000001   -0.00000003    0.00000003
     atom 1069 type  1   force =    -0.00000000   -0.00000012    0.00000009
     atom 1070 type  1   force =    -0.00000003    0.00000000    0.00000003
     atom 1071 type  1   force =    -0.00000006    0.00000006   -0.00000001
     atom 1072 type  1   force =    -0.00000005    0.00000004   -0.00000000
     atom 1073 type  2   force =     0.00000001    0.00000020    0.00000012
     atom 1074 type  2   force =     0.00000004    0.00000017    0.00000009
     atom 1075 type  2   force =     0.00000002    0.00000018    0.00000006
     atom 1076 type  2   force =     0.00000004    0.00000019    0.00000013
     atom 1077 type  2   force =     0.00000005    0.00000023    0.00000019
     atom 1078 type  2   force =    -0.00000002    0.00000024    0.00000015
     atom 1079 type  2   force =    -0.00000004    0.00000028    0.00000008
     atom 1080 type  2   force =    -0.00000005    0.00000013    0.00000005
     atom 1081 type  2   force =    -0.00000002    0.00000024    0.00000005
     atom 1082 type  2   force =    -0.00000002    0.00000029    0.00000014
     atom 1083 type  2   force =     0.00000004    0.00000019    0.00000014
     atom 1084 type  2   force =    -0.00000003    0.00000013    0.00000015
     atom 1085 type  2   force =     0.00000003    0.00000008    0.00000013
     atom 1086 type  2   force =    -0.00000007    0.00000018    0.00000013
     atom 1087 type  2   force =    -0.00000004    0.00000021    0.00000012
     atom 1088 type  2   force =    -0.00000005    0.00000027    0.00000010
     atom 1089 type  2   force =     0.00000000   -0.00000022   -0.00000017
     atom 1090 type  2   force =     0.00000006   -0.00000013   -0.00000012
     atom 1091 type  2   force =     0.00000001   -0.00000017   -0.00000014
     atom 1092 type  2   force =     0.00000001   -0.00000020   -0.00000009
     atom 1093 type  2   force =    -0.00000009   -0.00000029   -0.00000008
     atom 1094 type  2   force =    -0.00000001   -0.00000027   -0.00000008
     atom 1095 type  2   force =    -0.00000007   -0.00000023   -0.00000012
     atom 1096 type  2   force =    -0.00000004   -0.00000019   -0.00000012
     atom 1097 type  2   force =     0.00000001   -0.00000026   -0.00000019
     atom 1098 type  2   force =    -0.00000003   -0.00000028   -0.00000012
     atom 1099 type  2   force =     0.00000001   -0.00000009    0.00000001
     atom 1100 type  2   force =     0.00000000   -0.00000014   -0.00000010
     atom 1101 type  2   force =    -0.00000004   -0.00000014   -0.00000009
     atom 1102 type  2   force =    -0.00000007   -0.00000018   -0.00000008
     atom 1103 type  2   force =    -0.00000006   -0.00000018   -0.00000011
     atom 1104 type  2   force =    -0.00000004   -0.00000027   -0.00000014
     atom 1105 type  1   force =     0.00000001    0.00000003   -0.00000005
     atom 1106 type  1   force =     0.00000003    0.00000005    0.00000000
     atom 1107 type  1   force =    -0.00000002   -0.00000004   -0.00000003
     atom 1108 type  1   force =    -0.00000001   -0.00000007   -0.00000001
     atom 1109 type  1   force =     0.00000000   -0.00000011   -0.00000007
     atom 1110 type  1   force =    -0.00000002   -0.00000003   -0.00000002
     atom 1111 type  1   force =     0.00000002   -0.00000006   -0.00000006
     atom 1112 type  1   force =     0.00000007    0.00000006   -0.00000008
     atom 1113 type  1   force =    -0.00000005   -0.00000004   -0.00000000
     atom 1114 type  1   force =    -0.00000003   -0.00000003   -0.00000006
     atom 1115 type  1   force =     0.00000005    0.00000000   -0.00000004
     atom 1116 type  1   force =     0.00000001   -0.00000001   -0.00000006
     atom 1117 type  1   force =    -0.00000005   -0.00000001   -0.00000004
     atom 1118 type  1   force =    -0.00000003    0.00000002   -0.00000004
     atom 1119 type  1   force =    -0.00000003    0.00000001   -0.00000006
     atom 1120 type  1   force =    -0.00000002   -0.00000009   -0.00000005
     atom 1121 type  2   force =    -0.00000013   -0.00000007    0.00000002
     atom 1122 type  2   force =    -0.00000012   -0.00000010    0.00000003
     atom 1123 type  2   force =    -0.00000014   -0.00000014    0.00000006
     atom 1124 type  2   force =    -0.00000020   -0.00000014    0.00000015
     atom 1125 type  2   force =    -0.00000024   -0.00000017    0.00000014
     atom 1126 type  2   force =    -0.00000024   -0.00000015    0.00000013
     atom 1127 type  2   force =    -0.00000023   -0.00000018    0.00000007
     atom 1128 type  2   force =    -0.00000016   -0.00000007    0.00000010
     atom 1129 type  2   force =    -0.00000018   -0.00000008    0.00000004
     atom 1130 type  2   force =    -0.00000012   -0.00000015    0.00000008
     atom 1131 type  2   force =    -0.00000004   -0.00000012    0.00000007
     atom 1132 type  2   force =    -0.00000006   -0.00000008    0.00000004
     atom 1133 type  2   force =    -0.00000019   -0.00000011    0.00000009
     atom 1134 type  2   force =    -0.00000019   -0.00000012    0.00000011
     atom 1135 type  2   force =    -0.00000023   -0.00000009    0.00000000
     atom 1136 type  2   force =    -0.00000028   -0.00000019    0.00000015
     atom 1137 type  2   force =     0.00000016    0.00000003   -0.00000011
     atom 1138 type  2   force =     0.00000024    0.00000010   -0.00000017
     atom 1139 type  2   force =     0.00000024    0.00000005   -0.00000006
     atom 1140 type  2   force =     0.00000023    0.00000009   -0.00000012
     atom 1141 type  2   force =     0.00000017    0.00000012   -0.00000011
     atom 1142 type  2   force =     0.00000019    0.00000012   -0.00000012
     atom 1143 type  2   force =     0.00000022    0.00000008   -0.00000013
     atom 1144 type  2   force =     0.00000011    0.00000007   -0.00000008
     atom 1145 type  2   force =     0.00000024    0.00000008   -0.00000012
     atom 1146 type  2   force =     0.00000027    0.00000011   -0.00000014
     atom 1147 type  2   force =     0.00000022    0.00000004   -0.00000012
     atom 1148 type  2   force =     0.00000019    0.00000006   -0.00000009
     atom 1149 type  2   force =     0.00000014    0.00000007   -0.00000020
     atom 1150 type  2   force =     0.00000009    0.00000009   -0.00000008
     atom 1151 type  2   force =     0.00000020    0.00000012   -0.00000021
     atom 1152 type  2   force =     0.00000025    0.00000013   -0.00000011

     Total force =     0.161895     Total SCF correction =     0.000007

     Writing output data file ./SiO2_OR_1152_us.save/
 
     init_run     :    115.95s CPU     40.20s WALL (       1 calls)
     electrons    :   5066.85s CPU   1346.05s WALL (       1 calls)
     forces       :     58.12s CPU     21.08s WALL (       1 calls)

     Called by init_run:
     wfcinit      :    106.91s CPU     29.13s WALL (       1 calls)
     wfcinit:atom :      0.34s CPU      0.09s WALL (       1 calls)
     wfcinit:wfcr :    105.60s CPU     28.23s WALL (       1 calls)
     potinit      :      0.78s CPU      0.23s WALL (       1 calls)
     hinit0       :      2.49s CPU      6.03s WALL (       1 calls)

     Called by electrons:
     c_bands      :   4697.04s CPU   1236.65s WALL (      16 calls)
     sum_band     :    345.47s CPU    100.66s WALL (      16 calls)
     v_of_rho     :      3.87s CPU      1.08s WALL (      17 calls)
     v_h          :      0.37s CPU      0.10s WALL (      17 calls)
     v_xc         :      3.69s CPU      1.03s WALL (      18 calls)
     newd         :     19.92s CPU      7.41s WALL (      17 calls)
     mix_rho      :      1.12s CPU      0.30s WALL (      16 calls)

     Called by c_bands:
     init_us_2    :      6.20s CPU      1.68s WALL (      33 calls)
     cegterg      :   4671.22s CPU   1229.66s WALL (      16 calls)

     Called by sum_band:
     sum_band:wei :      0.00s CPU      0.00s WALL (      16 calls)
     sum_band:loo :    318.46s CPU     90.96s WALL (      16 calls)
     sum_band:buf :      0.00s CPU      0.00s WALL (      16 calls)
     sum_band:ini :      2.83s CPU      0.73s WALL (      16 calls)
     sum_band:cal :    173.83s CPU     53.34s WALL (      16 calls)
     sum_band:bec :     11.39s CPU      2.89s WALL (      16 calls)
     addusdens    :     15.05s CPU      6.22s WALL (      16 calls)
     addusd:skk   :      8.70s CPU      4.33s WALL (      32 calls)
     addusd:dgemm :      5.02s CPU      1.51s WALL (      32 calls)
     addusd:qvan2 :      1.01s CPU      0.26s WALL (      32 calls)

     Called by *egterg:
     cdiaghg      :    912.65s CPU    240.12s WALL (      69 calls)
     cegterg:over :    526.26s CPU    136.48s WALL (      53 calls)
     cegterg:upda :    293.61s CPU     74.58s WALL (      53 calls)
     cegterg:last :    820.20s CPU    207.41s WALL (      38 calls)
     cdiaghg:chol :     34.93s CPU      9.03s WALL (      69 calls)
     cdiaghg:inve :     22.22s CPU     12.74s WALL (      69 calls)
     cdiaghg:para :     78.69s CPU     20.28s WALL (     138 calls)
     h_psi        :   1597.88s CPU    438.00s WALL (      70 calls)
     s_psi        :    490.11s CPU    125.36s WALL (      70 calls)
     g_psi        :      1.69s CPU      0.43s WALL (      53 calls)

     Called by h_psi:
     h_psi:calbec :    521.43s CPU    158.80s WALL (      70 calls)
     vloc_psi     :    593.53s CPU    154.75s WALL (      70 calls)
     vloc_psi:tg_ :      0.72s CPU      0.19s WALL (      70 calls)
     add_vuspsi   :    480.19s CPU    123.46s WALL (      70 calls)

     General routines
     calbec       :    738.44s CPU    225.39s WALL (      90 calls)
     fft          :      4.54s CPU      6.39s WALL (     230 calls)
     ffts         :      1.05s CPU      0.28s WALL (      33 calls)
     fftw         :    674.30s CPU    176.18s WALL (   42560 calls)
     interpolate  :      0.39s CPU      0.11s WALL (      17 calls)
 
     Parallel routines
     fft_scatt_xy :     66.83s CPU     16.95s WALL (   42823 calls)
     fft_scatt_yz :    364.80s CPU     94.51s WALL (   42823 calls)
     fft_scatt_tg :     74.76s CPU     22.22s WALL (   42560 calls)
 
     PWSCF        :      1h27m CPU  24m 4.98s WALL

 
   This run was terminated on:   3:19:16  20Mar2021            

=------------------------------------------------------------------------------=
   JOB DONE.
=------------------------------------------------------------------------------=
