
     Program PWSCF v.6.6 starts on 19Mar2021 at 20:48:12 

     This program is part of the open-source Quantum ESPRESSO suite
     for quantum simulation of materials; please cite
         "P. Giannozzi et al., J. Phys.:Condens. Matter 21 395502 (2009);
         "P. Giannozzi et al., J. Phys.:Condens. Matter 29 465901 (2017);
          URL http://www.quantum-espresso.org", 
     in publications or presentations arising from this work. More details at
     http://www.quantum-espresso.org/quote

     Parallel version (MPI & OpenMP), running on     384 processor cores
     Number of MPI processes:               192
     Threads/MPI process:                     2

     MPI processes distributed on     8 nodes
     R & G space division:  proc/nbgrp/npool/nimage =     192
     wavefunctions fft division:  Y-proc x Z-proc =       4     48
     wavefunctions fft division:  task group distribution
                                  #TG    x Z-proc =       4     48
     Fft bands division:     nmany     =       1
     Reading input from input_quarzo_576
Warning: card &CELL ignored
Warning: card / ignored

     Current dimensions of program PWSCF are:
     Max number of different atomic species (ntypx) = 10
     Max number of k-points (npk) =  40000
     Max angular momentum in pseudopotentials (lmaxx) =  3

     Subspace diagonalization in iterative solution of the eigenvalue problem:
     one sub-group per band group will be used
     ELPA distributed-memory algorithm (size of sub-group: 13* 13 procs)

     Found symmetry operation: I + (  0.0000 -0.5000  0.0000)
     This is a supercell, fractional translations are disabled
 
     Parallelization info
     --------------------
     sticks:   dense  smooth     PW     G-vecs:    dense   smooth      PW
     Min         158      79     20                24570     8685    1146
     Max         159      81     21                24587     8701    1161
     Sum       30425   15201   3951              4718965  1668577  221009
 


     bravais-lattice index     =            8
     lattice parameter (alat)  =      37.1445  a.u.
     unit-cell volume          =   48817.2967 (a.u.)^3
     number of atoms/cell      =          576
     number of atomic types    =            2
     number of electrons       =      3072.00
     number of Kohn-Sham states=         1536
     kinetic-energy cutoff     =      40.0000  Ry
     charge density cutoff     =     320.0000  Ry
     convergence threshold     =      1.0E-10
     mixing beta               =       0.7000
     number of iterations used =            8  plain     mixing
     Exchange-correlation= PBESOL
                           (   1   4  10   8   0   0   0)

     celldm(1)=  37.144472  celldm(2)=   0.866025  celldm(3)=   1.099919
     celldm(4)=   0.000000  celldm(5)=   0.000000  celldm(6)=   0.000000

     crystal axes: (cart. coord. in units of alat)
               a(1) = (   1.000000   0.000000   0.000000 )  
               a(2) = (   0.000000   0.866025   0.000000 )  
               a(3) = (   0.000000   0.000000   1.099919 )  

     reciprocal axes: (cart. coord. in units 2 pi/alat)
               b(1) = (  1.000000  0.000000  0.000000 )  
               b(2) = (  0.000000  1.154701  0.000000 )  
               b(3) = (  0.000000  0.000000  0.909158 )  


     PseudoPot. # 1 for Si read from file:
     ./Si.pbesol-n-rrkjus_psl.0.1.UPF
     MD5 check sum: 84986bd6be9e79932892c86d18f23292
     Pseudo is Ultrasoft + core correction, Zval =  4.0
     Generated using "atomic" code by A. Dal Corso v.5.0.2 svn rev. 9415
     Using radial grid of 1141 points,  4 beta functions with: 
                l(1) =   0
                l(2) =   0
                l(3) =   1
                l(4) =   1
     Q(r) pseudized with 0 coefficients 


     PseudoPot. # 2 for O  read from file:
     ./O.pbesol-n-rrkjus_psl.0.1.UPF
     MD5 check sum: 82ba247c1b02f01b1b66dbedee2f956c
     Pseudo is Ultrasoft + core correction, Zval =  6.0
     Generated using "atomic" code by A. Dal Corso v.5.0.2 svn rev. 9415
     Using radial grid of 1095 points,  4 beta functions with: 
                l(1) =   0
                l(2) =   0
                l(3) =   1
                l(4) =   1
     Q(r) pseudized with 0 coefficients 


     atomic species   valence    mass     pseudopotential
        Si             4.00    47.86700     Si( 1.00)
        O              6.00    15.99940     O ( 1.00)

      2 Sym. Ops. (no inversion) found


                                    s                        frac. trans.

      isym =  1     identity                                     

 cryst.   s( 1) = (     1          0          0      )
                  (     0          1          0      )
                  (     0          0          1      )

 cart.    s( 1) = (  1.0000000  0.0000000  0.0000000 )
                  (  0.0000000  1.0000000  0.0000000 )
                  (  0.0000000  0.0000000  1.0000000 )


      isym =  2     180 deg rotation - cart. axis [1,0,0]        

 cryst.   s( 2) = (     1          0          0      )
                  (     0         -1          0      )
                  (     0          0         -1      )

 cart.    s( 2) = (  1.0000000  0.0000000  0.0000000 )
                  (  0.0000000 -1.0000000  0.0000000 )
                  (  0.0000000  0.0000000 -1.0000000 )


     point group C_2  (2)   
     there are  2 classes
     the character table:

       E     C2   
A      1.00  1.00
B      1.00 -1.00

     the symmetry operations in each class and the name of the first element:

     E        1
          identity                                               
     C2       2
          180 deg rotation - cart. axis [1,0,0]                  

   Cartesian axes

     site n.     atom                  positions (alat units)
         1           Si  tau(   1) = (   0.1172837   0.0000000   0.0000000  )
         2           Si  tau(   2) = (   0.1172837   0.4330127   0.0000000  )
         3           Si  tau(   3) = (   0.3672837   0.0000000   0.0000000  )
         4           Si  tau(   4) = (   0.3672837   0.4330127   0.0000000  )
         5           Si  tau(   5) = (   0.6172837   0.0000000   0.0000000  )
         6           Si  tau(   6) = (   0.6172837   0.4330127   0.0000000  )
         7           Si  tau(   7) = (   0.8672837   0.0000000   0.0000000  )
         8           Si  tau(   8) = (   0.8672837   0.4330127   0.0000000  )
         9           Si  tau(   9) = (   0.2422837   0.2165063   0.0000000  )
        10           Si  tau(  10) = (   0.2422837   0.6495190   0.0000000  )
        11           Si  tau(  11) = (   0.4922837   0.2165063   0.0000000  )
        12           Si  tau(  12) = (   0.4922837   0.6495190   0.0000000  )
        13           Si  tau(  13) = (   0.7422837   0.2165063   0.0000000  )
        14           Si  tau(  14) = (   0.7422837   0.6495190   0.0000000  )
        15           Si  tau(  15) = (   0.9922837   0.2165063   0.0000000  )
        16           Si  tau(  16) = (   0.9922837   0.6495190   0.0000000  )
        17           O   tau(  17) = (   0.0696567   0.3743553   0.0318126  )
        18           O   tau(  18) = (   0.0696567   0.8073680   0.0318126  )
        19           O   tau(  19) = (   0.3196567   0.3743553   0.0318126  )
        20           O   tau(  20) = (   0.3196567   0.8073680   0.0318126  )
        21           O   tau(  21) = (   0.5696567   0.3743553   0.0318126  )
        22           O   tau(  22) = (   0.5696567   0.8073680   0.0318126  )
        23           O   tau(  23) = (   0.8196567   0.3743553   0.0318126  )
        24           O   tau(  24) = (   0.8196567   0.8073680   0.0318126  )
        25           O   tau(  25) = (   0.1946567   0.1578489   0.0318126  )
        26           O   tau(  26) = (   0.1946567   0.5908616   0.0318126  )
        27           O   tau(  27) = (   0.4446567   0.1578489   0.0318126  )
        28           O   tau(  28) = (   0.4446567   0.5908616   0.0318126  )
        29           O   tau(  29) = (   0.6946567   0.1578489   0.0318126  )
        30           O   tau(  30) = (   0.6946567   0.5908616   0.0318126  )
        31           O   tau(  31) = (   0.9446567   0.1578489   0.0318126  )
        32           O   tau(  32) = (   0.9446567   0.5908616   0.0318126  )
        33           O   tau(  33) = (   0.1643728   0.0309958   0.0598473  )
        34           O   tau(  34) = (   0.1643728   0.4640085   0.0598473  )
        35           O   tau(  35) = (   0.4143728   0.0309958   0.0598473  )
        36           O   tau(  36) = (   0.4143728   0.4640085   0.0598473  )
        37           O   tau(  37) = (   0.6643728   0.0309958   0.0598473  )
        38           O   tau(  38) = (   0.6643728   0.4640085   0.0598473  )
        39           O   tau(  39) = (   0.9143728   0.0309958   0.0598473  )
        40           O   tau(  40) = (   0.9143728   0.4640085   0.0598473  )
        41           O   tau(  41) = (   0.0393728   0.2475022   0.0598473  )
        42           O   tau(  42) = (   0.0393728   0.6805149   0.0598473  )
        43           O   tau(  43) = (   0.2893728   0.2475022   0.0598473  )
        44           O   tau(  44) = (   0.2893728   0.6805149   0.0598473  )
        45           O   tau(  45) = (   0.5393728   0.2475022   0.0598473  )
        46           O   tau(  46) = (   0.5393728   0.6805149   0.0598473  )
        47           O   tau(  47) = (   0.7893728   0.2475022   0.0598473  )
        48           O   tau(  48) = (   0.7893728   0.6805149   0.0598473  )
        49           Si  tau(  49) = (   0.1913582   0.1015707   0.0916599  )
        50           Si  tau(  50) = (   0.1913582   0.5345834   0.0916599  )
        51           Si  tau(  51) = (   0.4413582   0.1015707   0.0916599  )
        52           Si  tau(  52) = (   0.4413582   0.5345834   0.0916599  )
        53           Si  tau(  53) = (   0.6913582   0.1015707   0.0916599  )
        54           Si  tau(  54) = (   0.6913582   0.5345834   0.0916599  )
        55           Si  tau(  55) = (   0.9413582   0.1015707   0.0916599  )
        56           Si  tau(  56) = (   0.9413582   0.5345834   0.0916599  )
        57           Si  tau(  57) = (   0.0663582   0.3180770   0.0916599  )
        58           Si  tau(  58) = (   0.0663582   0.7510897   0.0916599  )
        59           Si  tau(  59) = (   0.3163582   0.3180770   0.0916599  )
        60           Si  tau(  60) = (   0.3163582   0.7510897   0.0916599  )
        61           Si  tau(  61) = (   0.5663582   0.3180770   0.0916599  )
        62           Si  tau(  62) = (   0.5663582   0.7510897   0.0916599  )
        63           Si  tau(  63) = (   0.8163582   0.3180770   0.0916599  )
        64           Si  tau(  64) = (   0.8163582   0.7510897   0.0916599  )
        65           O   tau(  65) = (   0.0159705   0.0896532   0.1234725  )
        66           O   tau(  66) = (   0.0159705   0.5226659   0.1234725  )
        67           O   tau(  67) = (   0.2659705   0.0896532   0.1234725  )
        68           O   tau(  68) = (   0.2659705   0.5226659   0.1234725  )
        69           O   tau(  69) = (   0.5159704   0.0896532   0.1234725  )
        70           O   tau(  70) = (   0.5159704   0.5226659   0.1234725  )
        71           O   tau(  71) = (   0.7659704   0.0896532   0.1234725  )
        72           O   tau(  72) = (   0.7659704   0.5226659   0.1234725  )
        73           O   tau(  73) = (   0.1409704   0.3061596   0.1234725  )
        74           O   tau(  74) = (   0.1409704   0.7391723   0.1234725  )
        75           O   tau(  75) = (   0.3909705   0.3061596   0.1234725  )
        76           O   tau(  76) = (   0.3909705   0.7391723   0.1234725  )
        77           O   tau(  77) = (   0.6409704   0.3061596   0.1234725  )
        78           O   tau(  78) = (   0.6409704   0.7391723   0.1234725  )
        79           O   tau(  79) = (   0.8909704   0.3061596   0.1234725  )
        80           O   tau(  80) = (   0.8909704   0.7391723   0.1234725  )
        81           O   tau(  81) = (   0.0159705   0.3433595   0.1515072  )
        82           O   tau(  82) = (   0.0159705   0.7763722   0.1515072  )
        83           O   tau(  83) = (   0.2659705   0.3433595   0.1515072  )
        84           O   tau(  84) = (   0.2659705   0.7763722   0.1515072  )
        85           O   tau(  85) = (   0.5159704   0.3433595   0.1515072  )
        86           O   tau(  86) = (   0.5159704   0.7763722   0.1515072  )
        87           O   tau(  87) = (   0.7659704   0.3433595   0.1515072  )
        88           O   tau(  88) = (   0.7659704   0.7763722   0.1515072  )
        89           O   tau(  89) = (   0.1409704   0.1268531   0.1515072  )
        90           O   tau(  90) = (   0.1409704   0.5598658   0.1515072  )
        91           O   tau(  91) = (   0.3909705   0.1268531   0.1515072  )
        92           O   tau(  92) = (   0.3909705   0.5598658   0.1515072  )
        93           O   tau(  93) = (   0.6409704   0.1268531   0.1515072  )
        94           O   tau(  94) = (   0.6409704   0.5598658   0.1515072  )
        95           O   tau(  95) = (   0.8909704   0.1268531   0.1515072  )
        96           O   tau(  96) = (   0.8909704   0.5598658   0.1515072  )
        97           Si  tau(  97) = (   0.1913582   0.3314420   0.1833198  )
        98           Si  tau(  98) = (   0.1913582   0.7644547   0.1833198  )
        99           Si  tau(  99) = (   0.4413582   0.3314420   0.1833198  )
       100           Si  tau( 100) = (   0.4413582   0.7644547   0.1833198  )
       101           Si  tau( 101) = (   0.6913582   0.3314420   0.1833198  )
       102           Si  tau( 102) = (   0.6913582   0.7644547   0.1833198  )
       103           Si  tau( 103) = (   0.9413582   0.3314420   0.1833198  )
       104           Si  tau( 104) = (   0.9413582   0.7644547   0.1833198  )
       105           Si  tau( 105) = (   0.0663582   0.1149357   0.1833198  )
       106           Si  tau( 106) = (   0.0663582   0.5479484   0.1833198  )
       107           Si  tau( 107) = (   0.3163582   0.1149357   0.1833198  )
       108           Si  tau( 108) = (   0.3163582   0.5479484   0.1833198  )
       109           Si  tau( 109) = (   0.5663582   0.1149357   0.1833198  )
       110           Si  tau( 110) = (   0.5663582   0.5479484   0.1833198  )
       111           Si  tau( 111) = (   0.8163582   0.1149357   0.1833198  )
       112           Si  tau( 112) = (   0.8163582   0.5479484   0.1833198  )
       113           O   tau( 113) = (   0.1643728   0.4020169   0.2151324  )
       114           O   tau( 114) = (   0.1643728   0.8350296   0.2151324  )
       115           O   tau( 115) = (   0.4143728   0.4020169   0.2151324  )
       116           O   tau( 116) = (   0.4143728   0.8350296   0.2151324  )
       117           O   tau( 117) = (   0.6643728   0.4020169   0.2151324  )
       118           O   tau( 118) = (   0.6643728   0.8350296   0.2151324  )
       119           O   tau( 119) = (   0.9143728   0.4020169   0.2151324  )
       120           O   tau( 120) = (   0.9143728   0.8350296   0.2151324  )
       121           O   tau( 121) = (   0.0393728   0.1855106   0.2151324  )
       122           O   tau( 122) = (   0.0393728   0.6185233   0.2151324  )
       123           O   tau( 123) = (   0.2893728   0.1855106   0.2151324  )
       124           O   tau( 124) = (   0.2893728   0.6185233   0.2151324  )
       125           O   tau( 125) = (   0.5393728   0.1855106   0.2151324  )
       126           O   tau( 126) = (   0.5393728   0.6185233   0.2151324  )
       127           O   tau( 127) = (   0.7893728   0.1855106   0.2151324  )
       128           O   tau( 128) = (   0.7893728   0.6185233   0.2151324  )
       129           O   tau( 129) = (   0.0696567   0.0586574   0.2431670  )
       130           O   tau( 130) = (   0.0696567   0.4916701   0.2431670  )
       131           O   tau( 131) = (   0.3196567   0.0586574   0.2431670  )
       132           O   tau( 132) = (   0.3196567   0.4916701   0.2431670  )
       133           O   tau( 133) = (   0.5696567   0.0586574   0.2431670  )
       134           O   tau( 134) = (   0.5696567   0.4916701   0.2431670  )
       135           O   tau( 135) = (   0.8196567   0.0586574   0.2431670  )
       136           O   tau( 136) = (   0.8196567   0.4916701   0.2431670  )
       137           O   tau( 137) = (   0.1946567   0.2751638   0.2431670  )
       138           O   tau( 138) = (   0.1946567   0.7081765   0.2431670  )
       139           O   tau( 139) = (   0.4446567   0.2751638   0.2431670  )
       140           O   tau( 140) = (   0.4446567   0.7081765   0.2431670  )
       141           O   tau( 141) = (   0.6946567   0.2751638   0.2431670  )
       142           O   tau( 142) = (   0.6946567   0.7081765   0.2431670  )
       143           O   tau( 143) = (   0.9446567   0.2751638   0.2431670  )
       144           O   tau( 144) = (   0.9446567   0.7081765   0.2431670  )
       145           Si  tau( 145) = (   0.1172837   0.0000000   0.2749797  )
       146           Si  tau( 146) = (   0.1172837   0.4330127   0.2749797  )
       147           Si  tau( 147) = (   0.3672837   0.0000000   0.2749797  )
       148           Si  tau( 148) = (   0.3672837   0.4330127   0.2749797  )
       149           Si  tau( 149) = (   0.6172837   0.0000000   0.2749797  )
       150           Si  tau( 150) = (   0.6172837   0.4330127   0.2749797  )
       151           Si  tau( 151) = (   0.8672837   0.0000000   0.2749797  )
       152           Si  tau( 152) = (   0.8672837   0.4330127   0.2749797  )
       153           Si  tau( 153) = (   0.2422837   0.2165063   0.2749797  )
       154           Si  tau( 154) = (   0.2422837   0.6495190   0.2749797  )
       155           Si  tau( 155) = (   0.4922837   0.2165063   0.2749797  )
       156           Si  tau( 156) = (   0.4922837   0.6495190   0.2749797  )
       157           Si  tau( 157) = (   0.7422837   0.2165063   0.2749797  )
       158           Si  tau( 158) = (   0.7422837   0.6495190   0.2749797  )
       159           Si  tau( 159) = (   0.9922837   0.2165063   0.2749797  )
       160           Si  tau( 160) = (   0.9922837   0.6495190   0.2749797  )
       161           O   tau( 161) = (   0.0696567   0.3743553   0.3067923  )
       162           O   tau( 162) = (   0.0696567   0.8073680   0.3067923  )
       163           O   tau( 163) = (   0.3196567   0.3743553   0.3067923  )
       164           O   tau( 164) = (   0.3196567   0.8073680   0.3067923  )
       165           O   tau( 165) = (   0.5696567   0.3743553   0.3067923  )
       166           O   tau( 166) = (   0.5696567   0.8073680   0.3067923  )
       167           O   tau( 167) = (   0.8196567   0.3743553   0.3067923  )
       168           O   tau( 168) = (   0.8196567   0.8073680   0.3067923  )
       169           O   tau( 169) = (   0.1946567   0.1578489   0.3067923  )
       170           O   tau( 170) = (   0.1946567   0.5908616   0.3067923  )
       171           O   tau( 171) = (   0.4446567   0.1578489   0.3067923  )
       172           O   tau( 172) = (   0.4446567   0.5908616   0.3067923  )
       173           O   tau( 173) = (   0.6946567   0.1578489   0.3067923  )
       174           O   tau( 174) = (   0.6946567   0.5908616   0.3067923  )
       175           O   tau( 175) = (   0.9446567   0.1578489   0.3067923  )
       176           O   tau( 176) = (   0.9446567   0.5908616   0.3067923  )
       177           O   tau( 177) = (   0.1643728   0.0309958   0.3348269  )
       178           O   tau( 178) = (   0.1643728   0.4640085   0.3348269  )
       179           O   tau( 179) = (   0.4143728   0.0309958   0.3348269  )
       180           O   tau( 180) = (   0.4143728   0.4640085   0.3348269  )
       181           O   tau( 181) = (   0.6643728   0.0309958   0.3348269  )
       182           O   tau( 182) = (   0.6643728   0.4640085   0.3348269  )
       183           O   tau( 183) = (   0.9143728   0.0309958   0.3348269  )
       184           O   tau( 184) = (   0.9143728   0.4640085   0.3348269  )
       185           O   tau( 185) = (   0.0393728   0.2475022   0.3348269  )
       186           O   tau( 186) = (   0.0393728   0.6805149   0.3348269  )
       187           O   tau( 187) = (   0.2893728   0.2475022   0.3348269  )
       188           O   tau( 188) = (   0.2893728   0.6805149   0.3348269  )
       189           O   tau( 189) = (   0.5393728   0.2475022   0.3348269  )
       190           O   tau( 190) = (   0.5393728   0.6805149   0.3348269  )
       191           O   tau( 191) = (   0.7893728   0.2475022   0.3348269  )
       192           O   tau( 192) = (   0.7893728   0.6805149   0.3348269  )
       193           Si  tau( 193) = (   0.1913582   0.1015707   0.3666395  )
       194           Si  tau( 194) = (   0.1913582   0.5345834   0.3666395  )
       195           Si  tau( 195) = (   0.4413582   0.1015707   0.3666395  )
       196           Si  tau( 196) = (   0.4413582   0.5345834   0.3666395  )
       197           Si  tau( 197) = (   0.6913582   0.1015707   0.3666395  )
       198           Si  tau( 198) = (   0.6913582   0.5345834   0.3666395  )
       199           Si  tau( 199) = (   0.9413582   0.1015707   0.3666395  )
       200           Si  tau( 200) = (   0.9413582   0.5345834   0.3666395  )
       201           Si  tau( 201) = (   0.0663582   0.3180770   0.3666395  )
       202           Si  tau( 202) = (   0.0663582   0.7510897   0.3666395  )
       203           Si  tau( 203) = (   0.3163582   0.3180770   0.3666395  )
       204           Si  tau( 204) = (   0.3163582   0.7510897   0.3666395  )
       205           Si  tau( 205) = (   0.5663582   0.3180770   0.3666395  )
       206           Si  tau( 206) = (   0.5663582   0.7510897   0.3666395  )
       207           Si  tau( 207) = (   0.8163582   0.3180770   0.3666395  )
       208           Si  tau( 208) = (   0.8163582   0.7510897   0.3666395  )
       209           O   tau( 209) = (   0.0159705   0.0896532   0.3984522  )
       210           O   tau( 210) = (   0.0159705   0.5226659   0.3984522  )
       211           O   tau( 211) = (   0.2659705   0.0896532   0.3984522  )
       212           O   tau( 212) = (   0.2659705   0.5226659   0.3984522  )
       213           O   tau( 213) = (   0.5159704   0.0896532   0.3984522  )
       214           O   tau( 214) = (   0.5159704   0.5226659   0.3984522  )
       215           O   tau( 215) = (   0.7659704   0.0896532   0.3984522  )
       216           O   tau( 216) = (   0.7659704   0.5226659   0.3984522  )
       217           O   tau( 217) = (   0.1409704   0.3061596   0.3984522  )
       218           O   tau( 218) = (   0.1409704   0.7391723   0.3984522  )
       219           O   tau( 219) = (   0.3909705   0.3061596   0.3984522  )
       220           O   tau( 220) = (   0.3909705   0.7391723   0.3984522  )
       221           O   tau( 221) = (   0.6409704   0.3061596   0.3984522  )
       222           O   tau( 222) = (   0.6409704   0.7391723   0.3984522  )
       223           O   tau( 223) = (   0.8909704   0.3061596   0.3984522  )
       224           O   tau( 224) = (   0.8909704   0.7391723   0.3984522  )
       225           O   tau( 225) = (   0.0159705   0.3433595   0.4264868  )
       226           O   tau( 226) = (   0.0159705   0.7763722   0.4264868  )
       227           O   tau( 227) = (   0.2659705   0.3433595   0.4264868  )
       228           O   tau( 228) = (   0.2659705   0.7763722   0.4264868  )
       229           O   tau( 229) = (   0.5159704   0.3433595   0.4264868  )
       230           O   tau( 230) = (   0.5159704   0.7763722   0.4264868  )
       231           O   tau( 231) = (   0.7659704   0.3433595   0.4264868  )
       232           O   tau( 232) = (   0.7659704   0.7763722   0.4264868  )
       233           O   tau( 233) = (   0.1409704   0.1268531   0.4264868  )
       234           O   tau( 234) = (   0.1409704   0.5598658   0.4264868  )
       235           O   tau( 235) = (   0.3909705   0.1268531   0.4264868  )
       236           O   tau( 236) = (   0.3909705   0.5598658   0.4264868  )
       237           O   tau( 237) = (   0.6409704   0.1268531   0.4264868  )
       238           O   tau( 238) = (   0.6409704   0.5598658   0.4264868  )
       239           O   tau( 239) = (   0.8909704   0.1268531   0.4264868  )
       240           O   tau( 240) = (   0.8909704   0.5598658   0.4264868  )
       241           Si  tau( 241) = (   0.1913582   0.3314420   0.4582994  )
       242           Si  tau( 242) = (   0.1913582   0.7644547   0.4582994  )
       243           Si  tau( 243) = (   0.4413582   0.3314420   0.4582994  )
       244           Si  tau( 244) = (   0.4413582   0.7644547   0.4582994  )
       245           Si  tau( 245) = (   0.6913582   0.3314420   0.4582994  )
       246           Si  tau( 246) = (   0.6913582   0.7644547   0.4582994  )
       247           Si  tau( 247) = (   0.9413582   0.3314420   0.4582994  )
       248           Si  tau( 248) = (   0.9413582   0.7644547   0.4582994  )
       249           Si  tau( 249) = (   0.0663582   0.1149357   0.4582994  )
       250           Si  tau( 250) = (   0.0663582   0.5479484   0.4582994  )
       251           Si  tau( 251) = (   0.3163582   0.1149357   0.4582994  )
       252           Si  tau( 252) = (   0.3163582   0.5479484   0.4582994  )
       253           Si  tau( 253) = (   0.5663582   0.1149357   0.4582994  )
       254           Si  tau( 254) = (   0.5663582   0.5479484   0.4582994  )
       255           Si  tau( 255) = (   0.8163582   0.1149357   0.4582994  )
       256           Si  tau( 256) = (   0.8163582   0.5479484   0.4582994  )
       257           O   tau( 257) = (   0.1643728   0.4020169   0.4901120  )
       258           O   tau( 258) = (   0.1643728   0.8350296   0.4901120  )
       259           O   tau( 259) = (   0.4143728   0.4020169   0.4901120  )
       260           O   tau( 260) = (   0.4143728   0.8350296   0.4901120  )
       261           O   tau( 261) = (   0.6643728   0.4020169   0.4901120  )
       262           O   tau( 262) = (   0.6643728   0.8350296   0.4901120  )
       263           O   tau( 263) = (   0.9143728   0.4020169   0.4901120  )
       264           O   tau( 264) = (   0.9143728   0.8350296   0.4901120  )
       265           O   tau( 265) = (   0.0393728   0.1855106   0.4901120  )
       266           O   tau( 266) = (   0.0393728   0.6185233   0.4901120  )
       267           O   tau( 267) = (   0.2893728   0.1855106   0.4901120  )
       268           O   tau( 268) = (   0.2893728   0.6185233   0.4901120  )
       269           O   tau( 269) = (   0.5393728   0.1855106   0.4901120  )
       270           O   tau( 270) = (   0.5393728   0.6185233   0.4901120  )
       271           O   tau( 271) = (   0.7893728   0.1855106   0.4901120  )
       272           O   tau( 272) = (   0.7893728   0.6185233   0.4901120  )
       273           O   tau( 273) = (   0.0696567   0.0586574   0.5181467  )
       274           O   tau( 274) = (   0.0696567   0.4916701   0.5181467  )
       275           O   tau( 275) = (   0.3196567   0.0586574   0.5181467  )
       276           O   tau( 276) = (   0.3196567   0.4916701   0.5181467  )
       277           O   tau( 277) = (   0.5696567   0.0586574   0.5181467  )
       278           O   tau( 278) = (   0.5696567   0.4916701   0.5181467  )
       279           O   tau( 279) = (   0.8196567   0.0586574   0.5181467  )
       280           O   tau( 280) = (   0.8196567   0.4916701   0.5181467  )
       281           O   tau( 281) = (   0.1946567   0.2751638   0.5181467  )
       282           O   tau( 282) = (   0.1946567   0.7081765   0.5181467  )
       283           O   tau( 283) = (   0.4446567   0.2751638   0.5181467  )
       284           O   tau( 284) = (   0.4446567   0.7081765   0.5181467  )
       285           O   tau( 285) = (   0.6946567   0.2751638   0.5181467  )
       286           O   tau( 286) = (   0.6946567   0.7081765   0.5181467  )
       287           O   tau( 287) = (   0.9446567   0.2751638   0.5181467  )
       288           O   tau( 288) = (   0.9446567   0.7081765   0.5181467  )
       289           Si  tau( 289) = (   0.1172837   0.0000000   0.5499593  )
       290           Si  tau( 290) = (   0.1172837   0.4330127   0.5499593  )
       291           Si  tau( 291) = (   0.3672837   0.0000000   0.5499593  )
       292           Si  tau( 292) = (   0.3672837   0.4330127   0.5499593  )
       293           Si  tau( 293) = (   0.6172837   0.0000000   0.5499593  )
       294           Si  tau( 294) = (   0.6172837   0.4330127   0.5499593  )
       295           Si  tau( 295) = (   0.8672837   0.0000000   0.5499593  )
       296           Si  tau( 296) = (   0.8672837   0.4330127   0.5499593  )
       297           Si  tau( 297) = (   0.2422837   0.2165063   0.5499593  )
       298           Si  tau( 298) = (   0.2422837   0.6495190   0.5499593  )
       299           Si  tau( 299) = (   0.4922837   0.2165063   0.5499593  )
       300           Si  tau( 300) = (   0.4922837   0.6495190   0.5499593  )
       301           Si  tau( 301) = (   0.7422837   0.2165063   0.5499593  )
       302           Si  tau( 302) = (   0.7422837   0.6495190   0.5499593  )
       303           Si  tau( 303) = (   0.9922837   0.2165063   0.5499593  )
       304           Si  tau( 304) = (   0.9922837   0.6495190   0.5499593  )
       305           O   tau( 305) = (   0.0696567   0.3743553   0.5817719  )
       306           O   tau( 306) = (   0.0696567   0.8073680   0.5817719  )
       307           O   tau( 307) = (   0.3196567   0.3743553   0.5817719  )
       308           O   tau( 308) = (   0.3196567   0.8073680   0.5817719  )
       309           O   tau( 309) = (   0.5696567   0.3743553   0.5817719  )
       310           O   tau( 310) = (   0.5696567   0.8073680   0.5817719  )
       311           O   tau( 311) = (   0.8196567   0.3743553   0.5817719  )
       312           O   tau( 312) = (   0.8196567   0.8073680   0.5817719  )
       313           O   tau( 313) = (   0.1946567   0.1578489   0.5817719  )
       314           O   tau( 314) = (   0.1946567   0.5908616   0.5817719  )
       315           O   tau( 315) = (   0.4446567   0.1578489   0.5817719  )
       316           O   tau( 316) = (   0.4446567   0.5908616   0.5817719  )
       317           O   tau( 317) = (   0.6946567   0.1578489   0.5817719  )
       318           O   tau( 318) = (   0.6946567   0.5908616   0.5817719  )
       319           O   tau( 319) = (   0.9446567   0.1578489   0.5817719  )
       320           O   tau( 320) = (   0.9446567   0.5908616   0.5817719  )
       321           O   tau( 321) = (   0.1643728   0.0309958   0.6098066  )
       322           O   tau( 322) = (   0.1643728   0.4640085   0.6098066  )
       323           O   tau( 323) = (   0.4143728   0.0309958   0.6098066  )
       324           O   tau( 324) = (   0.4143728   0.4640085   0.6098066  )
       325           O   tau( 325) = (   0.6643728   0.0309958   0.6098066  )
       326           O   tau( 326) = (   0.6643728   0.4640085   0.6098066  )
       327           O   tau( 327) = (   0.9143728   0.0309958   0.6098066  )
       328           O   tau( 328) = (   0.9143728   0.4640085   0.6098066  )
       329           O   tau( 329) = (   0.0393728   0.2475022   0.6098066  )
       330           O   tau( 330) = (   0.0393728   0.6805149   0.6098066  )
       331           O   tau( 331) = (   0.2893728   0.2475022   0.6098066  )
       332           O   tau( 332) = (   0.2893728   0.6805149   0.6098066  )
       333           O   tau( 333) = (   0.5393728   0.2475022   0.6098066  )
       334           O   tau( 334) = (   0.5393728   0.6805149   0.6098066  )
       335           O   tau( 335) = (   0.7893728   0.2475022   0.6098066  )
       336           O   tau( 336) = (   0.7893728   0.6805149   0.6098066  )
       337           Si  tau( 337) = (   0.1913582   0.1015707   0.6416192  )
       338           Si  tau( 338) = (   0.1913582   0.5345834   0.6416192  )
       339           Si  tau( 339) = (   0.4413582   0.1015707   0.6416192  )
       340           Si  tau( 340) = (   0.4413582   0.5345834   0.6416192  )
       341           Si  tau( 341) = (   0.6913582   0.1015707   0.6416192  )
       342           Si  tau( 342) = (   0.6913582   0.5345834   0.6416192  )
       343           Si  tau( 343) = (   0.9413582   0.1015707   0.6416192  )
       344           Si  tau( 344) = (   0.9413582   0.5345834   0.6416192  )
       345           Si  tau( 345) = (   0.0663582   0.3180770   0.6416192  )
       346           Si  tau( 346) = (   0.0663582   0.7510897   0.6416192  )
       347           Si  tau( 347) = (   0.3163582   0.3180770   0.6416192  )
       348           Si  tau( 348) = (   0.3163582   0.7510897   0.6416192  )
       349           Si  tau( 349) = (   0.5663582   0.3180770   0.6416192  )
       350           Si  tau( 350) = (   0.5663582   0.7510897   0.6416192  )
       351           Si  tau( 351) = (   0.8163582   0.3180770   0.6416192  )
       352           Si  tau( 352) = (   0.8163582   0.7510897   0.6416192  )
       353           O   tau( 353) = (   0.0159705   0.0896532   0.6734318  )
       354           O   tau( 354) = (   0.0159705   0.5226659   0.6734318  )
       355           O   tau( 355) = (   0.2659705   0.0896532   0.6734318  )
       356           O   tau( 356) = (   0.2659705   0.5226659   0.6734318  )
       357           O   tau( 357) = (   0.5159704   0.0896532   0.6734318  )
       358           O   tau( 358) = (   0.5159704   0.5226659   0.6734318  )
       359           O   tau( 359) = (   0.7659704   0.0896532   0.6734318  )
       360           O   tau( 360) = (   0.7659704   0.5226659   0.6734318  )
       361           O   tau( 361) = (   0.1409704   0.3061596   0.6734318  )
       362           O   tau( 362) = (   0.1409704   0.7391723   0.6734318  )
       363           O   tau( 363) = (   0.3909705   0.3061596   0.6734318  )
       364           O   tau( 364) = (   0.3909705   0.7391723   0.6734318  )
       365           O   tau( 365) = (   0.6409704   0.3061596   0.6734318  )
       366           O   tau( 366) = (   0.6409704   0.7391723   0.6734318  )
       367           O   tau( 367) = (   0.8909704   0.3061596   0.6734318  )
       368           O   tau( 368) = (   0.8909704   0.7391723   0.6734318  )
       369           O   tau( 369) = (   0.0159705   0.3433595   0.7014664  )
       370           O   tau( 370) = (   0.0159705   0.7763722   0.7014664  )
       371           O   tau( 371) = (   0.2659705   0.3433595   0.7014664  )
       372           O   tau( 372) = (   0.2659705   0.7763722   0.7014664  )
       373           O   tau( 373) = (   0.5159704   0.3433595   0.7014664  )
       374           O   tau( 374) = (   0.5159704   0.7763722   0.7014664  )
       375           O   tau( 375) = (   0.7659704   0.3433595   0.7014664  )
       376           O   tau( 376) = (   0.7659704   0.7763722   0.7014664  )
       377           O   tau( 377) = (   0.1409704   0.1268531   0.7014664  )
       378           O   tau( 378) = (   0.1409704   0.5598658   0.7014664  )
       379           O   tau( 379) = (   0.3909705   0.1268531   0.7014664  )
       380           O   tau( 380) = (   0.3909705   0.5598658   0.7014664  )
       381           O   tau( 381) = (   0.6409704   0.1268531   0.7014664  )
       382           O   tau( 382) = (   0.6409704   0.5598658   0.7014664  )
       383           O   tau( 383) = (   0.8909704   0.1268531   0.7014664  )
       384           O   tau( 384) = (   0.8909704   0.5598658   0.7014664  )
       385           Si  tau( 385) = (   0.1913582   0.3314420   0.7332791  )
       386           Si  tau( 386) = (   0.1913582   0.7644547   0.7332791  )
       387           Si  tau( 387) = (   0.4413582   0.3314420   0.7332791  )
       388           Si  tau( 388) = (   0.4413582   0.7644547   0.7332791  )
       389           Si  tau( 389) = (   0.6913582   0.3314420   0.7332791  )
       390           Si  tau( 390) = (   0.6913582   0.7644547   0.7332791  )
       391           Si  tau( 391) = (   0.9413582   0.3314420   0.7332791  )
       392           Si  tau( 392) = (   0.9413582   0.7644547   0.7332791  )
       393           Si  tau( 393) = (   0.0663582   0.1149357   0.7332791  )
       394           Si  tau( 394) = (   0.0663582   0.5479484   0.7332791  )
       395           Si  tau( 395) = (   0.3163582   0.1149357   0.7332791  )
       396           Si  tau( 396) = (   0.3163582   0.5479484   0.7332791  )
       397           Si  tau( 397) = (   0.5663582   0.1149357   0.7332791  )
       398           Si  tau( 398) = (   0.5663582   0.5479484   0.7332791  )
       399           Si  tau( 399) = (   0.8163582   0.1149357   0.7332791  )
       400           Si  tau( 400) = (   0.8163582   0.5479484   0.7332791  )
       401           O   tau( 401) = (   0.1643728   0.4020169   0.7650917  )
       402           O   tau( 402) = (   0.1643728   0.8350296   0.7650917  )
       403           O   tau( 403) = (   0.4143728   0.4020169   0.7650917  )
       404           O   tau( 404) = (   0.4143728   0.8350296   0.7650917  )
       405           O   tau( 405) = (   0.6643728   0.4020169   0.7650917  )
       406           O   tau( 406) = (   0.6643728   0.8350296   0.7650917  )
       407           O   tau( 407) = (   0.9143728   0.4020169   0.7650917  )
       408           O   tau( 408) = (   0.9143728   0.8350296   0.7650917  )
       409           O   tau( 409) = (   0.0393728   0.1855106   0.7650917  )
       410           O   tau( 410) = (   0.0393728   0.6185233   0.7650917  )
       411           O   tau( 411) = (   0.2893728   0.1855106   0.7650917  )
       412           O   tau( 412) = (   0.2893728   0.6185233   0.7650917  )
       413           O   tau( 413) = (   0.5393728   0.1855106   0.7650917  )
       414           O   tau( 414) = (   0.5393728   0.6185233   0.7650917  )
       415           O   tau( 415) = (   0.7893728   0.1855106   0.7650917  )
       416           O   tau( 416) = (   0.7893728   0.6185233   0.7650917  )
       417           O   tau( 417) = (   0.0696567   0.0586574   0.7931263  )
       418           O   tau( 418) = (   0.0696567   0.4916701   0.7931263  )
       419           O   tau( 419) = (   0.3196567   0.0586574   0.7931263  )
       420           O   tau( 420) = (   0.3196567   0.4916701   0.7931263  )
       421           O   tau( 421) = (   0.5696567   0.0586574   0.7931263  )
       422           O   tau( 422) = (   0.5696567   0.4916701   0.7931263  )
       423           O   tau( 423) = (   0.8196567   0.0586574   0.7931263  )
       424           O   tau( 424) = (   0.8196567   0.4916701   0.7931263  )
       425           O   tau( 425) = (   0.1946567   0.2751638   0.7931263  )
       426           O   tau( 426) = (   0.1946567   0.7081765   0.7931263  )
       427           O   tau( 427) = (   0.4446567   0.2751638   0.7931263  )
       428           O   tau( 428) = (   0.4446567   0.7081765   0.7931263  )
       429           O   tau( 429) = (   0.6946567   0.2751638   0.7931263  )
       430           O   tau( 430) = (   0.6946567   0.7081765   0.7931263  )
       431           O   tau( 431) = (   0.9446567   0.2751638   0.7931263  )
       432           O   tau( 432) = (   0.9446567   0.7081765   0.7931263  )
       433           Si  tau( 433) = (   0.1172837   0.0000000   0.8249389  )
       434           Si  tau( 434) = (   0.1172837   0.4330127   0.8249389  )
       435           Si  tau( 435) = (   0.3672837   0.0000000   0.8249389  )
       436           Si  tau( 436) = (   0.3672837   0.4330127   0.8249389  )
       437           Si  tau( 437) = (   0.6172837   0.0000000   0.8249389  )
       438           Si  tau( 438) = (   0.6172837   0.4330127   0.8249389  )
       439           Si  tau( 439) = (   0.8672837   0.0000000   0.8249389  )
       440           Si  tau( 440) = (   0.8672837   0.4330127   0.8249389  )
       441           Si  tau( 441) = (   0.2422837   0.2165063   0.8249389  )
       442           Si  tau( 442) = (   0.2422837   0.6495190   0.8249389  )
       443           Si  tau( 443) = (   0.4922837   0.2165063   0.8249389  )
       444           Si  tau( 444) = (   0.4922837   0.6495190   0.8249389  )
       445           Si  tau( 445) = (   0.7422837   0.2165063   0.8249389  )
       446           Si  tau( 446) = (   0.7422837   0.6495190   0.8249389  )
       447           Si  tau( 447) = (   0.9922837   0.2165063   0.8249389  )
       448           Si  tau( 448) = (   0.9922837   0.6495190   0.8249389  )
       449           O   tau( 449) = (   0.0696567   0.3743553   0.8567516  )
       450           O   tau( 450) = (   0.0696567   0.8073680   0.8567516  )
       451           O   tau( 451) = (   0.3196567   0.3743553   0.8567516  )
       452           O   tau( 452) = (   0.3196567   0.8073680   0.8567516  )
       453           O   tau( 453) = (   0.5696567   0.3743553   0.8567516  )
       454           O   tau( 454) = (   0.5696567   0.8073680   0.8567516  )
       455           O   tau( 455) = (   0.8196567   0.3743553   0.8567516  )
       456           O   tau( 456) = (   0.8196567   0.8073680   0.8567516  )
       457           O   tau( 457) = (   0.1946567   0.1578489   0.8567516  )
       458           O   tau( 458) = (   0.1946567   0.5908616   0.8567516  )
       459           O   tau( 459) = (   0.4446567   0.1578489   0.8567516  )
       460           O   tau( 460) = (   0.4446567   0.5908616   0.8567516  )
       461           O   tau( 461) = (   0.6946567   0.1578489   0.8567516  )
       462           O   tau( 462) = (   0.6946567   0.5908616   0.8567516  )
       463           O   tau( 463) = (   0.9446567   0.1578489   0.8567516  )
       464           O   tau( 464) = (   0.9446567   0.5908616   0.8567516  )
       465           O   tau( 465) = (   0.1643728   0.0309958   0.8847862  )
       466           O   tau( 466) = (   0.1643728   0.4640085   0.8847862  )
       467           O   tau( 467) = (   0.4143728   0.0309958   0.8847862  )
       468           O   tau( 468) = (   0.4143728   0.4640085   0.8847862  )
       469           O   tau( 469) = (   0.6643728   0.0309958   0.8847862  )
       470           O   tau( 470) = (   0.6643728   0.4640085   0.8847862  )
       471           O   tau( 471) = (   0.9143728   0.0309958   0.8847862  )
       472           O   tau( 472) = (   0.9143728   0.4640085   0.8847862  )
       473           O   tau( 473) = (   0.0393728   0.2475022   0.8847862  )
       474           O   tau( 474) = (   0.0393728   0.6805149   0.8847862  )
       475           O   tau( 475) = (   0.2893728   0.2475022   0.8847862  )
       476           O   tau( 476) = (   0.2893728   0.6805149   0.8847862  )
       477           O   tau( 477) = (   0.5393728   0.2475022   0.8847862  )
       478           O   tau( 478) = (   0.5393728   0.6805149   0.8847862  )
       479           O   tau( 479) = (   0.7893728   0.2475022   0.8847862  )
       480           O   tau( 480) = (   0.7893728   0.6805149   0.8847862  )
       481           Si  tau( 481) = (   0.1913582   0.1015707   0.9165988  )
       482           Si  tau( 482) = (   0.1913582   0.5345834   0.9165988  )
       483           Si  tau( 483) = (   0.4413582   0.1015707   0.9165988  )
       484           Si  tau( 484) = (   0.4413582   0.5345834   0.9165988  )
       485           Si  tau( 485) = (   0.6913582   0.1015707   0.9165988  )
       486           Si  tau( 486) = (   0.6913582   0.5345834   0.9165988  )
       487           Si  tau( 487) = (   0.9413582   0.1015707   0.9165988  )
       488           Si  tau( 488) = (   0.9413582   0.5345834   0.9165988  )
       489           Si  tau( 489) = (   0.0663582   0.3180770   0.9165988  )
       490           Si  tau( 490) = (   0.0663582   0.7510897   0.9165988  )
       491           Si  tau( 491) = (   0.3163582   0.3180770   0.9165988  )
       492           Si  tau( 492) = (   0.3163582   0.7510897   0.9165988  )
       493           Si  tau( 493) = (   0.5663582   0.3180770   0.9165988  )
       494           Si  tau( 494) = (   0.5663582   0.7510897   0.9165988  )
       495           Si  tau( 495) = (   0.8163582   0.3180770   0.9165988  )
       496           Si  tau( 496) = (   0.8163582   0.7510897   0.9165988  )
       497           O   tau( 497) = (   0.0159705   0.0896532   0.9484115  )
       498           O   tau( 498) = (   0.0159705   0.5226659   0.9484115  )
       499           O   tau( 499) = (   0.2659705   0.0896532   0.9484115  )
       500           O   tau( 500) = (   0.2659705   0.5226659   0.9484115  )
       501           O   tau( 501) = (   0.5159704   0.0896532   0.9484115  )
       502           O   tau( 502) = (   0.5159704   0.5226659   0.9484115  )
       503           O   tau( 503) = (   0.7659704   0.0896532   0.9484115  )
       504           O   tau( 504) = (   0.7659704   0.5226659   0.9484115  )
       505           O   tau( 505) = (   0.1409704   0.3061596   0.9484115  )
       506           O   tau( 506) = (   0.1409704   0.7391723   0.9484115  )
       507           O   tau( 507) = (   0.3909705   0.3061596   0.9484115  )
       508           O   tau( 508) = (   0.3909705   0.7391723   0.9484115  )
       509           O   tau( 509) = (   0.6409704   0.3061596   0.9484115  )
       510           O   tau( 510) = (   0.6409704   0.7391723   0.9484115  )
       511           O   tau( 511) = (   0.8909704   0.3061596   0.9484115  )
       512           O   tau( 512) = (   0.8909704   0.7391723   0.9484115  )
       513           O   tau( 513) = (   0.0159705   0.3433595   0.9764461  )
       514           O   tau( 514) = (   0.0159705   0.7763722   0.9764461  )
       515           O   tau( 515) = (   0.2659705   0.3433595   0.9764461  )
       516           O   tau( 516) = (   0.2659705   0.7763722   0.9764461  )
       517           O   tau( 517) = (   0.5159704   0.3433595   0.9764461  )
       518           O   tau( 518) = (   0.5159704   0.7763722   0.9764461  )
       519           O   tau( 519) = (   0.7659704   0.3433595   0.9764461  )
       520           O   tau( 520) = (   0.7659704   0.7763722   0.9764461  )
       521           O   tau( 521) = (   0.1409704   0.1268531   0.9764461  )
       522           O   tau( 522) = (   0.1409704   0.5598658   0.9764461  )
       523           O   tau( 523) = (   0.3909705   0.1268531   0.9764461  )
       524           O   tau( 524) = (   0.3909705   0.5598658   0.9764461  )
       525           O   tau( 525) = (   0.6409704   0.1268531   0.9764461  )
       526           O   tau( 526) = (   0.6409704   0.5598658   0.9764461  )
       527           O   tau( 527) = (   0.8909704   0.1268531   0.9764461  )
       528           O   tau( 528) = (   0.8909704   0.5598658   0.9764461  )
       529           Si  tau( 529) = (   0.1913582   0.3314420   1.0082587  )
       530           Si  tau( 530) = (   0.1913582   0.7644547   1.0082587  )
       531           Si  tau( 531) = (   0.4413582   0.3314420   1.0082587  )
       532           Si  tau( 532) = (   0.4413582   0.7644547   1.0082587  )
       533           Si  tau( 533) = (   0.6913582   0.3314420   1.0082587  )
       534           Si  tau( 534) = (   0.6913582   0.7644547   1.0082587  )
       535           Si  tau( 535) = (   0.9413582   0.3314420   1.0082587  )
       536           Si  tau( 536) = (   0.9413582   0.7644547   1.0082587  )
       537           Si  tau( 537) = (   0.0663582   0.1149357   1.0082587  )
       538           Si  tau( 538) = (   0.0663582   0.5479484   1.0082587  )
       539           Si  tau( 539) = (   0.3163582   0.1149357   1.0082587  )
       540           Si  tau( 540) = (   0.3163582   0.5479484   1.0082587  )
       541           Si  tau( 541) = (   0.5663582   0.1149357   1.0082587  )
       542           Si  tau( 542) = (   0.5663582   0.5479484   1.0082587  )
       543           Si  tau( 543) = (   0.8163582   0.1149357   1.0082587  )
       544           Si  tau( 544) = (   0.8163582   0.5479484   1.0082587  )
       545           O   tau( 545) = (   0.1643728   0.4020169   1.0400713  )
       546           O   tau( 546) = (   0.1643728   0.8350296   1.0400713  )
       547           O   tau( 547) = (   0.4143728   0.4020169   1.0400713  )
       548           O   tau( 548) = (   0.4143728   0.8350296   1.0400713  )
       549           O   tau( 549) = (   0.6643728   0.4020169   1.0400713  )
       550           O   tau( 550) = (   0.6643728   0.8350296   1.0400713  )
       551           O   tau( 551) = (   0.9143728   0.4020169   1.0400713  )
       552           O   tau( 552) = (   0.9143728   0.8350296   1.0400713  )
       553           O   tau( 553) = (   0.0393728   0.1855106   1.0400713  )
       554           O   tau( 554) = (   0.0393728   0.6185233   1.0400713  )
       555           O   tau( 555) = (   0.2893728   0.1855106   1.0400713  )
       556           O   tau( 556) = (   0.2893728   0.6185233   1.0400713  )
       557           O   tau( 557) = (   0.5393728   0.1855106   1.0400713  )
       558           O   tau( 558) = (   0.5393728   0.6185233   1.0400713  )
       559           O   tau( 559) = (   0.7893728   0.1855106   1.0400713  )
       560           O   tau( 560) = (   0.7893728   0.6185233   1.0400713  )
       561           O   tau( 561) = (   0.0696567   0.0586574   1.0681060  )
       562           O   tau( 562) = (   0.0696567   0.4916701   1.0681060  )
       563           O   tau( 563) = (   0.3196567   0.0586574   1.0681060  )
       564           O   tau( 564) = (   0.3196567   0.4916701   1.0681060  )
       565           O   tau( 565) = (   0.5696567   0.0586574   1.0681060  )
       566           O   tau( 566) = (   0.5696567   0.4916701   1.0681060  )
       567           O   tau( 567) = (   0.8196567   0.0586574   1.0681060  )
       568           O   tau( 568) = (   0.8196567   0.4916701   1.0681060  )
       569           O   tau( 569) = (   0.1946567   0.2751638   1.0681060  )
       570           O   tau( 570) = (   0.1946567   0.7081765   1.0681060  )
       571           O   tau( 571) = (   0.4446567   0.2751638   1.0681060  )
       572           O   tau( 572) = (   0.4446567   0.7081765   1.0681060  )
       573           O   tau( 573) = (   0.6946567   0.2751638   1.0681060  )
       574           O   tau( 574) = (   0.6946567   0.7081765   1.0681060  )
       575           O   tau( 575) = (   0.9446567   0.2751638   1.0681060  )
       576           O   tau( 576) = (   0.9446567   0.7081765   1.0681060  )

   Crystallographic axes

     site n.     atom                  positions (cryst. coord.)
         1           Si  tau(   1) = (  0.1172837  0.0000000  0.0000000  )
         2           Si  tau(   2) = (  0.1172837  0.5000000  0.0000000  )
         3           Si  tau(   3) = (  0.3672837  0.0000000  0.0000000  )
         4           Si  tau(   4) = (  0.3672837  0.5000000  0.0000000  )
         5           Si  tau(   5) = (  0.6172837  0.0000000  0.0000000  )
         6           Si  tau(   6) = (  0.6172837  0.5000000  0.0000000  )
         7           Si  tau(   7) = (  0.8672837  0.0000000  0.0000000  )
         8           Si  tau(   8) = (  0.8672837  0.5000000  0.0000000  )
         9           Si  tau(   9) = (  0.2422837  0.2500000  0.0000000  )
        10           Si  tau(  10) = (  0.2422837  0.7500000  0.0000000  )
        11           Si  tau(  11) = (  0.4922837  0.2500000  0.0000000  )
        12           Si  tau(  12) = (  0.4922837  0.7500000  0.0000000  )
        13           Si  tau(  13) = (  0.7422837  0.2500000  0.0000000  )
        14           Si  tau(  14) = (  0.7422837  0.7500000  0.0000000  )
        15           Si  tau(  15) = (  0.9922837  0.2500000  0.0000000  )
        16           Si  tau(  16) = (  0.9922837  0.7500000  0.0000000  )
        17           O   tau(  17) = (  0.0696567  0.4322682  0.0289227  )
        18           O   tau(  18) = (  0.0696567  0.9322682  0.0289227  )
        19           O   tau(  19) = (  0.3196567  0.4322682  0.0289227  )
        20           O   tau(  20) = (  0.3196567  0.9322682  0.0289227  )
        21           O   tau(  21) = (  0.5696567  0.4322682  0.0289227  )
        22           O   tau(  22) = (  0.5696567  0.9322682  0.0289227  )
        23           O   tau(  23) = (  0.8196567  0.4322682  0.0289227  )
        24           O   tau(  24) = (  0.8196567  0.9322682  0.0289227  )
        25           O   tau(  25) = (  0.1946567  0.1822682  0.0289227  )
        26           O   tau(  26) = (  0.1946567  0.6822682  0.0289227  )
        27           O   tau(  27) = (  0.4446567  0.1822682  0.0289227  )
        28           O   tau(  28) = (  0.4446567  0.6822682  0.0289227  )
        29           O   tau(  29) = (  0.6946567  0.1822682  0.0289227  )
        30           O   tau(  30) = (  0.6946567  0.6822682  0.0289227  )
        31           O   tau(  31) = (  0.9446567  0.1822682  0.0289227  )
        32           O   tau(  32) = (  0.9446567  0.6822682  0.0289227  )
        33           O   tau(  33) = (  0.1643728  0.0357909  0.0544106  )
        34           O   tau(  34) = (  0.1643728  0.5357909  0.0544106  )
        35           O   tau(  35) = (  0.4143728  0.0357909  0.0544106  )
        36           O   tau(  36) = (  0.4143728  0.5357909  0.0544106  )
        37           O   tau(  37) = (  0.6643728  0.0357909  0.0544106  )
        38           O   tau(  38) = (  0.6643728  0.5357909  0.0544106  )
        39           O   tau(  39) = (  0.9143728  0.0357909  0.0544106  )
        40           O   tau(  40) = (  0.9143728  0.5357909  0.0544106  )
        41           O   tau(  41) = (  0.0393728  0.2857909  0.0544106  )
        42           O   tau(  42) = (  0.0393728  0.7857909  0.0544106  )
        43           O   tau(  43) = (  0.2893728  0.2857909  0.0544106  )
        44           O   tau(  44) = (  0.2893728  0.7857909  0.0544106  )
        45           O   tau(  45) = (  0.5393728  0.2857909  0.0544106  )
        46           O   tau(  46) = (  0.5393728  0.7857909  0.0544106  )
        47           O   tau(  47) = (  0.7893728  0.2857909  0.0544106  )
        48           O   tau(  48) = (  0.7893728  0.7857909  0.0544106  )
        49           Si  tau(  49) = (  0.1913582  0.1172837  0.0833333  )
        50           Si  tau(  50) = (  0.1913582  0.6172837  0.0833333  )
        51           Si  tau(  51) = (  0.4413582  0.1172837  0.0833333  )
        52           Si  tau(  52) = (  0.4413582  0.6172837  0.0833333  )
        53           Si  tau(  53) = (  0.6913582  0.1172837  0.0833333  )
        54           Si  tau(  54) = (  0.6913582  0.6172837  0.0833333  )
        55           Si  tau(  55) = (  0.9413582  0.1172837  0.0833333  )
        56           Si  tau(  56) = (  0.9413582  0.6172837  0.0833333  )
        57           Si  tau(  57) = (  0.0663582  0.3672837  0.0833333  )
        58           Si  tau(  58) = (  0.0663582  0.8672837  0.0833333  )
        59           Si  tau(  59) = (  0.3163582  0.3672837  0.0833333  )
        60           Si  tau(  60) = (  0.3163582  0.8672837  0.0833333  )
        61           Si  tau(  61) = (  0.5663582  0.3672837  0.0833333  )
        62           Si  tau(  62) = (  0.5663582  0.8672837  0.0833333  )
        63           Si  tau(  63) = (  0.8163582  0.3672837  0.0833333  )
        64           Si  tau(  64) = (  0.8163582  0.8672837  0.0833333  )
        65           O   tau(  65) = (  0.0159705  0.1035226  0.1122560  )
        66           O   tau(  66) = (  0.0159705  0.6035226  0.1122560  )
        67           O   tau(  67) = (  0.2659705  0.1035226  0.1122560  )
        68           O   tau(  68) = (  0.2659705  0.6035226  0.1122560  )
        69           O   tau(  69) = (  0.5159704  0.1035226  0.1122560  )
        70           O   tau(  70) = (  0.5159704  0.6035226  0.1122560  )
        71           O   tau(  71) = (  0.7659704  0.1035226  0.1122560  )
        72           O   tau(  72) = (  0.7659704  0.6035226  0.1122560  )
        73           O   tau(  73) = (  0.1409704  0.3535226  0.1122560  )
        74           O   tau(  74) = (  0.1409704  0.8535226  0.1122560  )
        75           O   tau(  75) = (  0.3909705  0.3535226  0.1122560  )
        76           O   tau(  76) = (  0.3909705  0.8535226  0.1122560  )
        77           O   tau(  77) = (  0.6409704  0.3535226  0.1122560  )
        78           O   tau(  78) = (  0.6409704  0.8535226  0.1122560  )
        79           O   tau(  79) = (  0.8909704  0.3535226  0.1122560  )
        80           O   tau(  80) = (  0.8909704  0.8535226  0.1122560  )
        81           O   tau(  81) = (  0.0159705  0.3964774  0.1377440  )
        82           O   tau(  82) = (  0.0159705  0.8964774  0.1377440  )
        83           O   tau(  83) = (  0.2659705  0.3964774  0.1377440  )
        84           O   tau(  84) = (  0.2659705  0.8964774  0.1377440  )
        85           O   tau(  85) = (  0.5159704  0.3964774  0.1377440  )
        86           O   tau(  86) = (  0.5159704  0.8964774  0.1377440  )
        87           O   tau(  87) = (  0.7659704  0.3964774  0.1377440  )
        88           O   tau(  88) = (  0.7659704  0.8964774  0.1377440  )
        89           O   tau(  89) = (  0.1409704  0.1464774  0.1377440  )
        90           O   tau(  90) = (  0.1409704  0.6464774  0.1377440  )
        91           O   tau(  91) = (  0.3909705  0.1464774  0.1377440  )
        92           O   tau(  92) = (  0.3909705  0.6464774  0.1377440  )
        93           O   tau(  93) = (  0.6409704  0.1464774  0.1377440  )
        94           O   tau(  94) = (  0.6409704  0.6464774  0.1377440  )
        95           O   tau(  95) = (  0.8909704  0.1464774  0.1377440  )
        96           O   tau(  96) = (  0.8909704  0.6464774  0.1377440  )
        97           Si  tau(  97) = (  0.1913582  0.3827163  0.1666667  )
        98           Si  tau(  98) = (  0.1913582  0.8827163  0.1666667  )
        99           Si  tau(  99) = (  0.4413582  0.3827163  0.1666667  )
       100           Si  tau( 100) = (  0.4413582  0.8827163  0.1666667  )
       101           Si  tau( 101) = (  0.6913582  0.3827163  0.1666667  )
       102           Si  tau( 102) = (  0.6913582  0.8827163  0.1666667  )
       103           Si  tau( 103) = (  0.9413582  0.3827163  0.1666667  )
       104           Si  tau( 104) = (  0.9413582  0.8827163  0.1666667  )
       105           Si  tau( 105) = (  0.0663582  0.1327163  0.1666667  )
       106           Si  tau( 106) = (  0.0663582  0.6327163  0.1666667  )
       107           Si  tau( 107) = (  0.3163582  0.1327163  0.1666667  )
       108           Si  tau( 108) = (  0.3163582  0.6327163  0.1666667  )
       109           Si  tau( 109) = (  0.5663582  0.1327163  0.1666667  )
       110           Si  tau( 110) = (  0.5663582  0.6327163  0.1666667  )
       111           Si  tau( 111) = (  0.8163582  0.1327163  0.1666667  )
       112           Si  tau( 112) = (  0.8163582  0.6327163  0.1666667  )
       113           O   tau( 113) = (  0.1643728  0.4642091  0.1955894  )
       114           O   tau( 114) = (  0.1643728  0.9642091  0.1955894  )
       115           O   tau( 115) = (  0.4143728  0.4642091  0.1955894  )
       116           O   tau( 116) = (  0.4143728  0.9642091  0.1955894  )
       117           O   tau( 117) = (  0.6643728  0.4642091  0.1955894  )
       118           O   tau( 118) = (  0.6643728  0.9642091  0.1955894  )
       119           O   tau( 119) = (  0.9143728  0.4642091  0.1955894  )
       120           O   tau( 120) = (  0.9143728  0.9642091  0.1955894  )
       121           O   tau( 121) = (  0.0393728  0.2142091  0.1955894  )
       122           O   tau( 122) = (  0.0393728  0.7142091  0.1955894  )
       123           O   tau( 123) = (  0.2893728  0.2142091  0.1955894  )
       124           O   tau( 124) = (  0.2893728  0.7142091  0.1955894  )
       125           O   tau( 125) = (  0.5393728  0.2142091  0.1955894  )
       126           O   tau( 126) = (  0.5393728  0.7142091  0.1955894  )
       127           O   tau( 127) = (  0.7893728  0.2142091  0.1955894  )
       128           O   tau( 128) = (  0.7893728  0.7142091  0.1955894  )
       129           O   tau( 129) = (  0.0696567  0.0677318  0.2210773  )
       130           O   tau( 130) = (  0.0696567  0.5677318  0.2210773  )
       131           O   tau( 131) = (  0.3196567  0.0677318  0.2210773  )
       132           O   tau( 132) = (  0.3196567  0.5677318  0.2210773  )
       133           O   tau( 133) = (  0.5696567  0.0677318  0.2210773  )
       134           O   tau( 134) = (  0.5696567  0.5677318  0.2210773  )
       135           O   tau( 135) = (  0.8196567  0.0677318  0.2210773  )
       136           O   tau( 136) = (  0.8196567  0.5677318  0.2210773  )
       137           O   tau( 137) = (  0.1946567  0.3177318  0.2210773  )
       138           O   tau( 138) = (  0.1946567  0.8177318  0.2210773  )
       139           O   tau( 139) = (  0.4446567  0.3177318  0.2210773  )
       140           O   tau( 140) = (  0.4446567  0.8177318  0.2210773  )
       141           O   tau( 141) = (  0.6946567  0.3177318  0.2210773  )
       142           O   tau( 142) = (  0.6946567  0.8177318  0.2210773  )
       143           O   tau( 143) = (  0.9446567  0.3177318  0.2210773  )
       144           O   tau( 144) = (  0.9446567  0.8177318  0.2210773  )
       145           Si  tau( 145) = (  0.1172837  0.0000000  0.2500000  )
       146           Si  tau( 146) = (  0.1172837  0.5000000  0.2500000  )
       147           Si  tau( 147) = (  0.3672837  0.0000000  0.2500000  )
       148           Si  tau( 148) = (  0.3672837  0.5000000  0.2500000  )
       149           Si  tau( 149) = (  0.6172837  0.0000000  0.2500000  )
       150           Si  tau( 150) = (  0.6172837  0.5000000  0.2500000  )
       151           Si  tau( 151) = (  0.8672837  0.0000000  0.2500000  )
       152           Si  tau( 152) = (  0.8672837  0.5000000  0.2500000  )
       153           Si  tau( 153) = (  0.2422837  0.2500000  0.2500000  )
       154           Si  tau( 154) = (  0.2422837  0.7500000  0.2500000  )
       155           Si  tau( 155) = (  0.4922837  0.2500000  0.2500000  )
       156           Si  tau( 156) = (  0.4922837  0.7500000  0.2500000  )
       157           Si  tau( 157) = (  0.7422837  0.2500000  0.2500000  )
       158           Si  tau( 158) = (  0.7422837  0.7500000  0.2500000  )
       159           Si  tau( 159) = (  0.9922837  0.2500000  0.2500000  )
       160           Si  tau( 160) = (  0.9922837  0.7500000  0.2500000  )
       161           O   tau( 161) = (  0.0696567  0.4322682  0.2789227  )
       162           O   tau( 162) = (  0.0696567  0.9322682  0.2789227  )
       163           O   tau( 163) = (  0.3196567  0.4322682  0.2789227  )
       164           O   tau( 164) = (  0.3196567  0.9322682  0.2789227  )
       165           O   tau( 165) = (  0.5696567  0.4322682  0.2789227  )
       166           O   tau( 166) = (  0.5696567  0.9322682  0.2789227  )
       167           O   tau( 167) = (  0.8196567  0.4322682  0.2789227  )
       168           O   tau( 168) = (  0.8196567  0.9322682  0.2789227  )
       169           O   tau( 169) = (  0.1946567  0.1822682  0.2789227  )
       170           O   tau( 170) = (  0.1946567  0.6822682  0.2789227  )
       171           O   tau( 171) = (  0.4446567  0.1822682  0.2789227  )
       172           O   tau( 172) = (  0.4446567  0.6822682  0.2789227  )
       173           O   tau( 173) = (  0.6946567  0.1822682  0.2789227  )
       174           O   tau( 174) = (  0.6946567  0.6822682  0.2789227  )
       175           O   tau( 175) = (  0.9446567  0.1822682  0.2789227  )
       176           O   tau( 176) = (  0.9446567  0.6822682  0.2789227  )
       177           O   tau( 177) = (  0.1643728  0.0357909  0.3044106  )
       178           O   tau( 178) = (  0.1643728  0.5357909  0.3044106  )
       179           O   tau( 179) = (  0.4143728  0.0357909  0.3044106  )
       180           O   tau( 180) = (  0.4143728  0.5357909  0.3044106  )
       181           O   tau( 181) = (  0.6643728  0.0357909  0.3044106  )
       182           O   tau( 182) = (  0.6643728  0.5357909  0.3044106  )
       183           O   tau( 183) = (  0.9143728  0.0357909  0.3044106  )
       184           O   tau( 184) = (  0.9143728  0.5357909  0.3044106  )
       185           O   tau( 185) = (  0.0393728  0.2857909  0.3044106  )
       186           O   tau( 186) = (  0.0393728  0.7857909  0.3044106  )
       187           O   tau( 187) = (  0.2893728  0.2857909  0.3044106  )
       188           O   tau( 188) = (  0.2893728  0.7857909  0.3044106  )
       189           O   tau( 189) = (  0.5393728  0.2857909  0.3044106  )
       190           O   tau( 190) = (  0.5393728  0.7857909  0.3044106  )
       191           O   tau( 191) = (  0.7893728  0.2857909  0.3044106  )
       192           O   tau( 192) = (  0.7893728  0.7857909  0.3044106  )
       193           Si  tau( 193) = (  0.1913582  0.1172837  0.3333333  )
       194           Si  tau( 194) = (  0.1913582  0.6172837  0.3333333  )
       195           Si  tau( 195) = (  0.4413582  0.1172837  0.3333333  )
       196           Si  tau( 196) = (  0.4413582  0.6172837  0.3333333  )
       197           Si  tau( 197) = (  0.6913582  0.1172837  0.3333333  )
       198           Si  tau( 198) = (  0.6913582  0.6172837  0.3333333  )
       199           Si  tau( 199) = (  0.9413582  0.1172837  0.3333333  )
       200           Si  tau( 200) = (  0.9413582  0.6172837  0.3333333  )
       201           Si  tau( 201) = (  0.0663582  0.3672837  0.3333333  )
       202           Si  tau( 202) = (  0.0663582  0.8672837  0.3333333  )
       203           Si  tau( 203) = (  0.3163582  0.3672837  0.3333333  )
       204           Si  tau( 204) = (  0.3163582  0.8672837  0.3333333  )
       205           Si  tau( 205) = (  0.5663582  0.3672837  0.3333333  )
       206           Si  tau( 206) = (  0.5663582  0.8672837  0.3333333  )
       207           Si  tau( 207) = (  0.8163582  0.3672837  0.3333333  )
       208           Si  tau( 208) = (  0.8163582  0.8672837  0.3333333  )
       209           O   tau( 209) = (  0.0159705  0.1035226  0.3622560  )
       210           O   tau( 210) = (  0.0159705  0.6035226  0.3622560  )
       211           O   tau( 211) = (  0.2659705  0.1035226  0.3622560  )
       212           O   tau( 212) = (  0.2659705  0.6035226  0.3622560  )
       213           O   tau( 213) = (  0.5159704  0.1035226  0.3622560  )
       214           O   tau( 214) = (  0.5159704  0.6035226  0.3622560  )
       215           O   tau( 215) = (  0.7659704  0.1035226  0.3622560  )
       216           O   tau( 216) = (  0.7659704  0.6035226  0.3622560  )
       217           O   tau( 217) = (  0.1409704  0.3535226  0.3622560  )
       218           O   tau( 218) = (  0.1409704  0.8535226  0.3622560  )
       219           O   tau( 219) = (  0.3909705  0.3535226  0.3622560  )
       220           O   tau( 220) = (  0.3909705  0.8535226  0.3622560  )
       221           O   tau( 221) = (  0.6409704  0.3535226  0.3622560  )
       222           O   tau( 222) = (  0.6409704  0.8535226  0.3622560  )
       223           O   tau( 223) = (  0.8909704  0.3535226  0.3622560  )
       224           O   tau( 224) = (  0.8909704  0.8535226  0.3622560  )
       225           O   tau( 225) = (  0.0159705  0.3964774  0.3877440  )
       226           O   tau( 226) = (  0.0159705  0.8964774  0.3877440  )
       227           O   tau( 227) = (  0.2659705  0.3964774  0.3877440  )
       228           O   tau( 228) = (  0.2659705  0.8964774  0.3877440  )
       229           O   tau( 229) = (  0.5159704  0.3964774  0.3877440  )
       230           O   tau( 230) = (  0.5159704  0.8964774  0.3877440  )
       231           O   tau( 231) = (  0.7659704  0.3964774  0.3877440  )
       232           O   tau( 232) = (  0.7659704  0.8964774  0.3877440  )
       233           O   tau( 233) = (  0.1409704  0.1464774  0.3877440  )
       234           O   tau( 234) = (  0.1409704  0.6464774  0.3877440  )
       235           O   tau( 235) = (  0.3909705  0.1464774  0.3877440  )
       236           O   tau( 236) = (  0.3909705  0.6464774  0.3877440  )
       237           O   tau( 237) = (  0.6409704  0.1464774  0.3877440  )
       238           O   tau( 238) = (  0.6409704  0.6464774  0.3877440  )
       239           O   tau( 239) = (  0.8909704  0.1464774  0.3877440  )
       240           O   tau( 240) = (  0.8909704  0.6464774  0.3877440  )
       241           Si  tau( 241) = (  0.1913582  0.3827163  0.4166667  )
       242           Si  tau( 242) = (  0.1913582  0.8827163  0.4166667  )
       243           Si  tau( 243) = (  0.4413582  0.3827163  0.4166667  )
       244           Si  tau( 244) = (  0.4413582  0.8827163  0.4166667  )
       245           Si  tau( 245) = (  0.6913582  0.3827163  0.4166667  )
       246           Si  tau( 246) = (  0.6913582  0.8827163  0.4166667  )
       247           Si  tau( 247) = (  0.9413582  0.3827163  0.4166667  )
       248           Si  tau( 248) = (  0.9413582  0.8827163  0.4166667  )
       249           Si  tau( 249) = (  0.0663582  0.1327163  0.4166667  )
       250           Si  tau( 250) = (  0.0663582  0.6327163  0.4166667  )
       251           Si  tau( 251) = (  0.3163582  0.1327163  0.4166667  )
       252           Si  tau( 252) = (  0.3163582  0.6327163  0.4166667  )
       253           Si  tau( 253) = (  0.5663582  0.1327163  0.4166667  )
       254           Si  tau( 254) = (  0.5663582  0.6327163  0.4166667  )
       255           Si  tau( 255) = (  0.8163582  0.1327163  0.4166667  )
       256           Si  tau( 256) = (  0.8163582  0.6327163  0.4166667  )
       257           O   tau( 257) = (  0.1643728  0.4642091  0.4455894  )
       258           O   tau( 258) = (  0.1643728  0.9642091  0.4455894  )
       259           O   tau( 259) = (  0.4143728  0.4642091  0.4455894  )
       260           O   tau( 260) = (  0.4143728  0.9642091  0.4455894  )
       261           O   tau( 261) = (  0.6643728  0.4642091  0.4455894  )
       262           O   tau( 262) = (  0.6643728  0.9642091  0.4455894  )
       263           O   tau( 263) = (  0.9143728  0.4642091  0.4455894  )
       264           O   tau( 264) = (  0.9143728  0.9642091  0.4455894  )
       265           O   tau( 265) = (  0.0393728  0.2142091  0.4455894  )
       266           O   tau( 266) = (  0.0393728  0.7142091  0.4455894  )
       267           O   tau( 267) = (  0.2893728  0.2142091  0.4455894  )
       268           O   tau( 268) = (  0.2893728  0.7142091  0.4455894  )
       269           O   tau( 269) = (  0.5393728  0.2142091  0.4455894  )
       270           O   tau( 270) = (  0.5393728  0.7142091  0.4455894  )
       271           O   tau( 271) = (  0.7893728  0.2142091  0.4455894  )
       272           O   tau( 272) = (  0.7893728  0.7142091  0.4455894  )
       273           O   tau( 273) = (  0.0696567  0.0677318  0.4710773  )
       274           O   tau( 274) = (  0.0696567  0.5677318  0.4710773  )
       275           O   tau( 275) = (  0.3196567  0.0677318  0.4710773  )
       276           O   tau( 276) = (  0.3196567  0.5677318  0.4710773  )
       277           O   tau( 277) = (  0.5696567  0.0677318  0.4710773  )
       278           O   tau( 278) = (  0.5696567  0.5677318  0.4710773  )
       279           O   tau( 279) = (  0.8196567  0.0677318  0.4710773  )
       280           O   tau( 280) = (  0.8196567  0.5677318  0.4710773  )
       281           O   tau( 281) = (  0.1946567  0.3177318  0.4710773  )
       282           O   tau( 282) = (  0.1946567  0.8177318  0.4710773  )
       283           O   tau( 283) = (  0.4446567  0.3177318  0.4710773  )
       284           O   tau( 284) = (  0.4446567  0.8177318  0.4710773  )
       285           O   tau( 285) = (  0.6946567  0.3177318  0.4710773  )
       286           O   tau( 286) = (  0.6946567  0.8177318  0.4710773  )
       287           O   tau( 287) = (  0.9446567  0.3177318  0.4710773  )
       288           O   tau( 288) = (  0.9446567  0.8177318  0.4710773  )
       289           Si  tau( 289) = (  0.1172837  0.0000000  0.5000000  )
       290           Si  tau( 290) = (  0.1172837  0.5000000  0.5000000  )
       291           Si  tau( 291) = (  0.3672837  0.0000000  0.5000000  )
       292           Si  tau( 292) = (  0.3672837  0.5000000  0.5000000  )
       293           Si  tau( 293) = (  0.6172837  0.0000000  0.5000000  )
       294           Si  tau( 294) = (  0.6172837  0.5000000  0.5000000  )
       295           Si  tau( 295) = (  0.8672837  0.0000000  0.5000000  )
       296           Si  tau( 296) = (  0.8672837  0.5000000  0.5000000  )
       297           Si  tau( 297) = (  0.2422837  0.2500000  0.5000000  )
       298           Si  tau( 298) = (  0.2422837  0.7500000  0.5000000  )
       299           Si  tau( 299) = (  0.4922837  0.2500000  0.5000000  )
       300           Si  tau( 300) = (  0.4922837  0.7500000  0.5000000  )
       301           Si  tau( 301) = (  0.7422837  0.2500000  0.5000000  )
       302           Si  tau( 302) = (  0.7422837  0.7500000  0.5000000  )
       303           Si  tau( 303) = (  0.9922837  0.2500000  0.5000000  )
       304           Si  tau( 304) = (  0.9922837  0.7500000  0.5000000  )
       305           O   tau( 305) = (  0.0696567  0.4322682  0.5289227  )
       306           O   tau( 306) = (  0.0696567  0.9322682  0.5289227  )
       307           O   tau( 307) = (  0.3196567  0.4322682  0.5289227  )
       308           O   tau( 308) = (  0.3196567  0.9322682  0.5289227  )
       309           O   tau( 309) = (  0.5696567  0.4322682  0.5289227  )
       310           O   tau( 310) = (  0.5696567  0.9322682  0.5289227  )
       311           O   tau( 311) = (  0.8196567  0.4322682  0.5289227  )
       312           O   tau( 312) = (  0.8196567  0.9322682  0.5289227  )
       313           O   tau( 313) = (  0.1946567  0.1822682  0.5289227  )
       314           O   tau( 314) = (  0.1946567  0.6822682  0.5289227  )
       315           O   tau( 315) = (  0.4446567  0.1822682  0.5289227  )
       316           O   tau( 316) = (  0.4446567  0.6822682  0.5289227  )
       317           O   tau( 317) = (  0.6946567  0.1822682  0.5289227  )
       318           O   tau( 318) = (  0.6946567  0.6822682  0.5289227  )
       319           O   tau( 319) = (  0.9446567  0.1822682  0.5289227  )
       320           O   tau( 320) = (  0.9446567  0.6822682  0.5289227  )
       321           O   tau( 321) = (  0.1643728  0.0357909  0.5544106  )
       322           O   tau( 322) = (  0.1643728  0.5357909  0.5544106  )
       323           O   tau( 323) = (  0.4143728  0.0357909  0.5544106  )
       324           O   tau( 324) = (  0.4143728  0.5357909  0.5544106  )
       325           O   tau( 325) = (  0.6643728  0.0357909  0.5544106  )
       326           O   tau( 326) = (  0.6643728  0.5357909  0.5544106  )
       327           O   tau( 327) = (  0.9143728  0.0357909  0.5544106  )
       328           O   tau( 328) = (  0.9143728  0.5357909  0.5544106  )
       329           O   tau( 329) = (  0.0393728  0.2857909  0.5544106  )
       330           O   tau( 330) = (  0.0393728  0.7857909  0.5544106  )
       331           O   tau( 331) = (  0.2893728  0.2857909  0.5544106  )
       332           O   tau( 332) = (  0.2893728  0.7857909  0.5544106  )
       333           O   tau( 333) = (  0.5393728  0.2857909  0.5544106  )
       334           O   tau( 334) = (  0.5393728  0.7857909  0.5544106  )
       335           O   tau( 335) = (  0.7893728  0.2857909  0.5544106  )
       336           O   tau( 336) = (  0.7893728  0.7857909  0.5544106  )
       337           Si  tau( 337) = (  0.1913582  0.1172837  0.5833333  )
       338           Si  tau( 338) = (  0.1913582  0.6172837  0.5833333  )
       339           Si  tau( 339) = (  0.4413582  0.1172837  0.5833333  )
       340           Si  tau( 340) = (  0.4413582  0.6172837  0.5833333  )
       341           Si  tau( 341) = (  0.6913582  0.1172837  0.5833333  )
       342           Si  tau( 342) = (  0.6913582  0.6172837  0.5833333  )
       343           Si  tau( 343) = (  0.9413582  0.1172837  0.5833333  )
       344           Si  tau( 344) = (  0.9413582  0.6172837  0.5833333  )
       345           Si  tau( 345) = (  0.0663582  0.3672837  0.5833333  )
       346           Si  tau( 346) = (  0.0663582  0.8672837  0.5833333  )
       347           Si  tau( 347) = (  0.3163582  0.3672837  0.5833333  )
       348           Si  tau( 348) = (  0.3163582  0.8672837  0.5833333  )
       349           Si  tau( 349) = (  0.5663582  0.3672837  0.5833333  )
       350           Si  tau( 350) = (  0.5663582  0.8672837  0.5833333  )
       351           Si  tau( 351) = (  0.8163582  0.3672837  0.5833333  )
       352           Si  tau( 352) = (  0.8163582  0.8672837  0.5833333  )
       353           O   tau( 353) = (  0.0159705  0.1035226  0.6122560  )
       354           O   tau( 354) = (  0.0159705  0.6035226  0.6122560  )
       355           O   tau( 355) = (  0.2659705  0.1035226  0.6122560  )
       356           O   tau( 356) = (  0.2659705  0.6035226  0.6122560  )
       357           O   tau( 357) = (  0.5159704  0.1035226  0.6122560  )
       358           O   tau( 358) = (  0.5159704  0.6035226  0.6122560  )
       359           O   tau( 359) = (  0.7659704  0.1035226  0.6122560  )
       360           O   tau( 360) = (  0.7659704  0.6035226  0.6122560  )
       361           O   tau( 361) = (  0.1409704  0.3535226  0.6122560  )
       362           O   tau( 362) = (  0.1409704  0.8535226  0.6122560  )
       363           O   tau( 363) = (  0.3909705  0.3535226  0.6122560  )
       364           O   tau( 364) = (  0.3909705  0.8535226  0.6122560  )
       365           O   tau( 365) = (  0.6409704  0.3535226  0.6122560  )
       366           O   tau( 366) = (  0.6409704  0.8535226  0.6122560  )
       367           O   tau( 367) = (  0.8909704  0.3535226  0.6122560  )
       368           O   tau( 368) = (  0.8909704  0.8535226  0.6122560  )
       369           O   tau( 369) = (  0.0159705  0.3964774  0.6377440  )
       370           O   tau( 370) = (  0.0159705  0.8964774  0.6377440  )
       371           O   tau( 371) = (  0.2659705  0.3964774  0.6377440  )
       372           O   tau( 372) = (  0.2659705  0.8964774  0.6377440  )
       373           O   tau( 373) = (  0.5159704  0.3964774  0.6377440  )
       374           O   tau( 374) = (  0.5159704  0.8964774  0.6377440  )
       375           O   tau( 375) = (  0.7659704  0.3964774  0.6377440  )
       376           O   tau( 376) = (  0.7659704  0.8964774  0.6377440  )
       377           O   tau( 377) = (  0.1409704  0.1464774  0.6377440  )
       378           O   tau( 378) = (  0.1409704  0.6464774  0.6377440  )
       379           O   tau( 379) = (  0.3909705  0.1464774  0.6377440  )
       380           O   tau( 380) = (  0.3909705  0.6464774  0.6377440  )
       381           O   tau( 381) = (  0.6409704  0.1464774  0.6377440  )
       382           O   tau( 382) = (  0.6409704  0.6464774  0.6377440  )
       383           O   tau( 383) = (  0.8909704  0.1464774  0.6377440  )
       384           O   tau( 384) = (  0.8909704  0.6464774  0.6377440  )
       385           Si  tau( 385) = (  0.1913582  0.3827163  0.6666667  )
       386           Si  tau( 386) = (  0.1913582  0.8827163  0.6666667  )
       387           Si  tau( 387) = (  0.4413582  0.3827163  0.6666667  )
       388           Si  tau( 388) = (  0.4413582  0.8827163  0.6666667  )
       389           Si  tau( 389) = (  0.6913582  0.3827163  0.6666667  )
[...]
     atom  366 type  2   force =     0.00000026   -0.00000028   -0.00000013
     atom  367 type  2   force =     0.00000071   -0.00000029   -0.00000034
     atom  368 type  2   force =     0.00000040   -0.00000006   -0.00000041
     atom  369 type  2   force =     0.00000016    0.00000042    0.00000023
     atom  370 type  2   force =     0.00000034    0.00000066    0.00000004
     atom  371 type  2   force =    -0.00000009    0.00000039    0.00000037
     atom  372 type  2   force =    -0.00000011    0.00000049   -0.00000015
     atom  373 type  2   force =     0.00000001    0.00000004    0.00000020
     atom  374 type  2   force =    -0.00000025    0.00000014    0.00000041
     atom  375 type  2   force =     0.00000081    0.00000020    0.00000047
     atom  376 type  2   force =     0.00000047    0.00000048    0.00000027
     atom  377 type  2   force =    -0.00000015   -0.00000014   -0.00000024
     atom  378 type  2   force =    -0.00000002    0.00000002    0.00000011
     atom  379 type  2   force =     0.00000005   -0.00000011   -0.00000017
     atom  380 type  2   force =     0.00000007    0.00000045    0.00000041
     atom  381 type  2   force =     0.00000027    0.00000019    0.00000007
     atom  382 type  2   force =     0.00000020    0.00000068    0.00000059
     atom  383 type  2   force =     0.00000022   -0.00000003   -0.00000031
     atom  384 type  2   force =     0.00000080    0.00000020    0.00000019
     atom  385 type  1   force =    -0.00000016    0.00000022    0.00000018
     atom  386 type  1   force =    -0.00000007    0.00000024    0.00000002
     atom  387 type  1   force =    -0.00000015   -0.00000002    0.00000009
     atom  388 type  1   force =    -0.00000003    0.00000003    0.00000002
     atom  389 type  1   force =     0.00000022   -0.00000011   -0.00000006
     atom  390 type  1   force =     0.00000009    0.00000012   -0.00000001
     atom  391 type  1   force =     0.00000015    0.00000027   -0.00000040
     atom  392 type  1   force =     0.00000015    0.00000016   -0.00000004
     atom  393 type  1   force =    -0.00000016    0.00000029   -0.00000023
     atom  394 type  1   force =    -0.00000017   -0.00000014   -0.00000023
     atom  395 type  1   force =    -0.00000024   -0.00000031   -0.00000002
     atom  396 type  1   force =    -0.00000001   -0.00000002    0.00000003
     atom  397 type  1   force =    -0.00000008   -0.00000004   -0.00000016
     atom  398 type  1   force =     0.00000006    0.00000019   -0.00000002
     atom  399 type  1   force =    -0.00000002   -0.00000007   -0.00000023
     atom  400 type  1   force =     0.00000023    0.00000010    0.00000015
     atom  401 type  2   force =    -0.00000031    0.00000044    0.00000011
     atom  402 type  2   force =     0.00000001    0.00000063   -0.00000034
     atom  403 type  2   force =    -0.00000002    0.00000034   -0.00000011
     atom  404 type  2   force =     0.00000004   -0.00000003   -0.00000006
     atom  405 type  2   force =     0.00000014    0.00000034    0.00000009
     atom  406 type  2   force =     0.00000001    0.00000041   -0.00000003
     atom  407 type  2   force =     0.00000044    0.00000038   -0.00000039
     atom  408 type  2   force =     0.00000018    0.00000051   -0.00000026
     atom  409 type  2   force =     0.00000002    0.00000082   -0.00000016
     atom  410 type  2   force =    -0.00000027    0.00000039    0.00000004
     atom  411 type  2   force =    -0.00000027    0.00000029   -0.00000008
     atom  412 type  2   force =     0.00000014    0.00000030   -0.00000024
     atom  413 type  2   force =     0.00000017    0.00000038   -0.00000035
     atom  414 type  2   force =     0.00000016    0.00000076   -0.00000035
     atom  415 type  2   force =     0.00000044    0.00000037   -0.00000047
     atom  416 type  2   force =     0.00000011    0.00000066    0.00000020
     atom  417 type  2   force =     0.00000015   -0.00000023    0.00000004
     atom  418 type  2   force =    -0.00000008   -0.00000054    0.00000022
     atom  419 type  2   force =    -0.00000068   -0.00000030    0.00000026
     atom  420 type  2   force =    -0.00000062   -0.00000011    0.00000034
     atom  421 type  2   force =    -0.00000022   -0.00000045    0.00000037
     atom  422 type  2   force =    -0.00000022   -0.00000012    0.00000032
     atom  423 type  2   force =    -0.00000004   -0.00000019    0.00000001
     atom  424 type  2   force =    -0.00000002   -0.00000017    0.00000051
     atom  425 type  2   force =    -0.00000064    0.00000009    0.00000049
     atom  426 type  2   force =    -0.00000046    0.00000030    0.00000019
     atom  427 type  2   force =    -0.00000056    0.00000017    0.00000030
     atom  428 type  2   force =    -0.00000009    0.00000040   -0.00000003
     atom  429 type  2   force =    -0.00000023   -0.00000003    0.00000030
     atom  430 type  2   force =    -0.00000018   -0.00000020    0.00000052
     atom  431 type  2   force =     0.00000064   -0.00000018   -0.00000008
     atom  432 type  2   force =    -0.00000012   -0.00000030    0.00000058
     atom  433 type  1   force =     0.00000029    0.00000003    0.00000007
     atom  434 type  1   force =     0.00000022   -0.00000009    0.00000002
     atom  435 type  1   force =    -0.00000005    0.00000011    0.00000007
     atom  436 type  1   force =    -0.00000018   -0.00000007   -0.00000000
     atom  437 type  1   force =     0.00000001   -0.00000008   -0.00000001
     atom  438 type  1   force =     0.00000000    0.00000001    0.00000021
     atom  439 type  1   force =     0.00000029    0.00000003    0.00000003
     atom  440 type  1   force =     0.00000026    0.00000008   -0.00000013
     atom  441 type  1   force =    -0.00000019    0.00000005    0.00000018
     atom  442 type  1   force =    -0.00000009    0.00000006   -0.00000004
     atom  443 type  1   force =    -0.00000003    0.00000006    0.00000001
     atom  444 type  1   force =    -0.00000007    0.00000006   -0.00000009
     atom  445 type  1   force =     0.00000008    0.00000003    0.00000002
     atom  446 type  1   force =     0.00000016    0.00000002   -0.00000002
     atom  447 type  1   force =     0.00000048   -0.00000010   -0.00000022
     atom  448 type  1   force =    -0.00000008    0.00000000    0.00000000
     atom  449 type  2   force =     0.00000034    0.00000028   -0.00000043
     atom  450 type  2   force =    -0.00000008    0.00000030   -0.00000014
     atom  451 type  2   force =    -0.00000067   -0.00000016    0.00000013
     atom  452 type  2   force =     0.00000001    0.00000014   -0.00000001
     atom  453 type  2   force =    -0.00000039    0.00000007   -0.00000026
     atom  454 type  2   force =    -0.00000014   -0.00000008   -0.00000008
     atom  455 type  2   force =     0.00000031    0.00000018   -0.00000018
     atom  456 type  2   force =     0.00000027    0.00000000   -0.00000028
     atom  457 type  2   force =    -0.00000047    0.00000003   -0.00000013
     atom  458 type  2   force =    -0.00000051   -0.00000021   -0.00000031
     atom  459 type  2   force =    -0.00000041   -0.00000003   -0.00000015
     atom  460 type  2   force =    -0.00000064    0.00000023   -0.00000051
     atom  461 type  2   force =    -0.00000033   -0.00000004   -0.00000022
     atom  462 type  2   force =     0.00000043    0.00000043   -0.00000000
     atom  463 type  2   force =     0.00000044    0.00000041   -0.00000028
     atom  464 type  2   force =     0.00000010    0.00000046   -0.00000046
     atom  465 type  2   force =     0.00000002   -0.00000038    0.00000020
     atom  466 type  2   force =    -0.00000012   -0.00000094    0.00000011
     atom  467 type  2   force =     0.00000003   -0.00000086    0.00000012
     atom  468 type  2   force =    -0.00000024   -0.00000067    0.00000010
     atom  469 type  2   force =    -0.00000009   -0.00000061    0.00000003
     atom  470 type  2   force =     0.00000033   -0.00000040    0.00000037
     atom  471 type  2   force =     0.00000036   -0.00000075    0.00000015
     atom  472 type  2   force =     0.00000012   -0.00000054   -0.00000011
     atom  473 type  2   force =    -0.00000004   -0.00000053   -0.00000026
     atom  474 type  2   force =    -0.00000040   -0.00000035   -0.00000007
     atom  475 type  2   force =    -0.00000018    0.00000001    0.00000051
     atom  476 type  2   force =     0.00000022   -0.00000004    0.00000024
     atom  477 type  2   force =     0.00000009   -0.00000039    0.00000028
     atom  478 type  2   force =     0.00000026    0.00000031    0.00000027
     atom  479 type  2   force =     0.00000043   -0.00000028    0.00000029
     atom  480 type  2   force =     0.00000002   -0.00000059    0.00000005
     atom  481 type  1   force =    -0.00000006   -0.00000024   -0.00000026
     atom  482 type  1   force =    -0.00000002   -0.00000037   -0.00000004
     atom  483 type  1   force =     0.00000004   -0.00000023   -0.00000005
     atom  484 type  1   force =    -0.00000002    0.00000005   -0.00000008
     atom  485 type  1   force =    -0.00000002   -0.00000004    0.00000004
     atom  486 type  1   force =     0.00000006   -0.00000005    0.00000032
     atom  487 type  1   force =     0.00000020   -0.00000027    0.00000010
     atom  488 type  1   force =     0.00000012   -0.00000005   -0.00000009
     atom  489 type  1   force =     0.00000032   -0.00000014   -0.00000005
     atom  490 type  1   force =    -0.00000021    0.00000014    0.00000030
     atom  491 type  1   force =     0.00000009   -0.00000012   -0.00000002
     atom  492 type  1   force =    -0.00000006    0.00000009    0.00000011
     atom  493 type  1   force =     0.00000005   -0.00000006   -0.00000013
     atom  494 type  1   force =     0.00000013   -0.00000000    0.00000003
     atom  495 type  1   force =     0.00000014   -0.00000008    0.00000023
     atom  496 type  1   force =     0.00000041   -0.00000019    0.00000001
     atom  497 type  2   force =     0.00000051   -0.00000036   -0.00000034
     atom  498 type  2   force =     0.00000053   -0.00000037   -0.00000042
     atom  499 type  2   force =    -0.00000025   -0.00000035   -0.00000054
     atom  500 type  2   force =     0.00000020   -0.00000064    0.00000005
     atom  501 type  2   force =     0.00000032   -0.00000052   -0.00000021
     atom  502 type  2   force =     0.00000050   -0.00000034   -0.00000006
     atom  503 type  2   force =     0.00000018   -0.00000034   -0.00000047
     atom  504 type  2   force =     0.00000021   -0.00000025   -0.00000040
     atom  505 type  2   force =     0.00000058   -0.00000016   -0.00000037
     atom  506 type  2   force =    -0.00000008   -0.00000005   -0.00000039
     atom  507 type  2   force =    -0.00000021   -0.00000031   -0.00000024
     atom  508 type  2   force =     0.00000012    0.00000007   -0.00000039
     atom  509 type  2   force =     0.00000035   -0.00000033   -0.00000024
     atom  510 type  2   force =     0.00000020   -0.00000049   -0.00000038
     atom  511 type  2   force =     0.00000035   -0.00000043   -0.00000047
     atom  512 type  2   force =     0.00000056   -0.00000040   -0.00000067
     atom  513 type  2   force =     0.00000046    0.00000017    0.00000012
     atom  514 type  2   force =     0.00000031    0.00000055    0.00000020
     atom  515 type  2   force =    -0.00000021   -0.00000007   -0.00000000
     atom  516 type  2   force =     0.00000047    0.00000049   -0.00000006
     atom  517 type  2   force =    -0.00000001    0.00000021    0.00000014
     atom  518 type  2   force =     0.00000013    0.00000019   -0.00000009
     atom  519 type  2   force =     0.00000049    0.00000046    0.00000026
     atom  520 type  2   force =     0.00000002   -0.00000006   -0.00000001
     atom  521 type  2   force =    -0.00000007   -0.00000012   -0.00000027
     atom  522 type  2   force =     0.00000008   -0.00000009    0.00000040
     atom  523 type  2   force =     0.00000020    0.00000036    0.00000027
     atom  524 type  2   force =    -0.00000034    0.00000021    0.00000059
     atom  525 type  2   force =     0.00000015    0.00000029    0.00000030
     atom  526 type  2   force =     0.00000046    0.00000054    0.00000041
     atom  527 type  2   force =     0.00000068    0.00000042    0.00000007
     atom  528 type  2   force =     0.00000026    0.00000049    0.00000008
     atom  529 type  1   force =    -0.00000026    0.00000018    0.00000003
     atom  530 type  1   force =     0.00000003    0.00000008   -0.00000012
     atom  531 type  1   force =    -0.00000036   -0.00000025   -0.00000015
     atom  532 type  1   force =    -0.00000001    0.00000010   -0.00000005
     atom  533 type  1   force =     0.00000017    0.00000018    0.00000003
     atom  534 type  1   force =    -0.00000020   -0.00000013   -0.00000021
     atom  535 type  1   force =    -0.00000008   -0.00000015   -0.00000015
     atom  536 type  1   force =     0.00000024    0.00000034   -0.00000051
     atom  537 type  1   force =    -0.00000028    0.00000003    0.00000009
     atom  538 type  1   force =    -0.00000003    0.00000018   -0.00000004
     atom  539 type  1   force =    -0.00000014    0.00000014    0.00000003
     atom  540 type  1   force =    -0.00000019   -0.00000031    0.00000026
     atom  541 type  1   force =     0.00000003   -0.00000011   -0.00000007
     atom  542 type  1   force =     0.00000028    0.00000032   -0.00000011
     atom  543 type  1   force =     0.00000007    0.00000019   -0.00000010
     atom  544 type  1   force =    -0.00000012    0.00000000   -0.00000008
     atom  545 type  2   force =     0.00000024    0.00000055   -0.00000016
     atom  546 type  2   force =    -0.00000006    0.00000048   -0.00000047
     atom  547 type  2   force =    -0.00000066    0.00000001    0.00000008
     atom  548 type  2   force =     0.00000020    0.00000022   -0.00000049
     atom  549 type  2   force =     0.00000005    0.00000071    0.00000011
     atom  550 type  2   force =    -0.00000006    0.00000014   -0.00000028
     atom  551 type  2   force =     0.00000014    0.00000025   -0.00000023
     atom  552 type  2   force =     0.00000071    0.00000049   -0.00000060
     atom  553 type  2   force =     0.00000006    0.00000064   -0.00000011
     atom  554 type  2   force =     0.00000004    0.00000068    0.00000005
     atom  555 type  2   force =    -0.00000007    0.00000088   -0.00000014
     atom  556 type  2   force =    -0.00000005   -0.00000015    0.00000028
     atom  557 type  2   force =     0.00000011    0.00000006   -0.00000004
     atom  558 type  2   force =     0.00000033    0.00000066   -0.00000035
     atom  559 type  2   force =     0.00000007    0.00000074   -0.00000011
     atom  560 type  2   force =    -0.00000003    0.00000046   -0.00000031
     atom  561 type  2   force =    -0.00000062    0.00000008    0.00000010
     atom  562 type  2   force =     0.00000044   -0.00000032    0.00000025
     atom  563 type  2   force =    -0.00000044   -0.00000004    0.00000031
     atom  564 type  2   force =    -0.00000071   -0.00000010    0.00000047
     atom  565 type  2   force =    -0.00000042    0.00000007    0.00000024
     atom  566 type  2   force =     0.00000038   -0.00000022    0.00000016
     atom  567 type  2   force =    -0.00000022   -0.00000001    0.00000021
     atom  568 type  2   force =    -0.00000048   -0.00000007    0.00000033
     atom  569 type  2   force =    -0.00000006    0.00000023    0.00000006
     atom  570 type  2   force =    -0.00000038   -0.00000031    0.00000049
     atom  571 type  2   force =    -0.00000080    0.00000008    0.00000024
     atom  572 type  2   force =    -0.00000022    0.00000003    0.00000016
     atom  573 type  2   force =    -0.00000025   -0.00000010    0.00000048
     atom  574 type  2   force =    -0.00000013   -0.00000021   -0.00000009
     atom  575 type  2   force =     0.00000019   -0.00000041    0.00000025
     atom  576 type  2   force =     0.00000060   -0.00000037    0.00000003

     Total force =     0.114484     Total SCF correction =     0.000013

     Writing output data file ./SiO2_OR_576_us.save/
 
     init_run     :     19.81s CPU     11.81s WALL (       1 calls)
     electrons    :    917.38s CPU    486.67s WALL (       1 calls)
     forces       :     11.46s CPU      7.48s WALL (       1 calls)

     Called by init_run:
     wfcinit      :     16.10s CPU      8.58s WALL (       1 calls)
     wfcinit:atom :      0.04s CPU      0.03s WALL (       1 calls)
     wfcinit:wfcr :     15.71s CPU      8.33s WALL (       1 calls)
     potinit      :      0.44s CPU      0.24s WALL (       1 calls)
     hinit0       :      0.74s CPU      0.51s WALL (       1 calls)

     Called by electrons:
     c_bands      :    842.85s CPU    444.69s WALL (      15 calls)
     sum_band     :     67.35s CPU     37.35s WALL (      15 calls)
     v_of_rho     :      1.95s CPU      1.07s WALL (      16 calls)
     v_h          :      0.22s CPU      0.11s WALL (      16 calls)
     v_xc         :      1.81s CPU      0.99s WALL (      17 calls)
     newd         :      4.57s CPU      3.07s WALL (      16 calls)
     mix_rho      :      0.43s CPU      0.23s WALL (      15 calls)

     Called by c_bands:
     init_us_2    :      1.47s CPU      0.78s WALL (      31 calls)
     cegterg      :    837.54s CPU    441.73s WALL (      15 calls)

     Called by sum_band:
     sum_band:wei :      0.00s CPU      0.00s WALL (      15 calls)
     sum_band:loo :     61.39s CPU     33.47s WALL (      15 calls)
     sum_band:buf :      0.00s CPU      0.00s WALL (      15 calls)
     sum_band:ini :      0.70s CPU      0.36s WALL (      15 calls)
     sum_band:cal :     25.91s CPU     15.23s WALL (      15 calls)
     sum_band:bec :      1.93s CPU      0.98s WALL (      15 calls)
     addusdens    :      3.33s CPU      2.52s WALL (      15 calls)
     addusd:skk   :      1.54s CPU      1.47s WALL (      30 calls)
     addusd:dgemm :      1.31s CPU      0.78s WALL (      30 calls)
     addusd:qvan2 :      0.38s CPU      0.19s WALL (      30 calls)

     Called by *egterg:
     cdiaghg      :    151.67s CPU     78.94s WALL (      65 calls)
     cegterg:over :     95.21s CPU     52.01s WALL (      50 calls)
     cegterg:upda :     63.29s CPU     32.60s WALL (      50 calls)
     cegterg:last :    131.03s CPU     67.63s WALL (      36 calls)
     cdiaghg:chol :      4.98s CPU      2.59s WALL (      65 calls)
     cdiaghg:inve :      5.46s CPU      2.79s WALL (      65 calls)
     cdiaghg:para :     11.48s CPU      6.05s WALL (     130 calls)
     h_psi        :    324.72s CPU    172.46s WALL (      66 calls)
     s_psi        :     62.55s CPU     32.47s WALL (      66 calls)
     g_psi        :      0.39s CPU      0.20s WALL (      50 calls)

     Called by h_psi:
     h_psi:calbec :     79.26s CPU     45.43s WALL (      66 calls)
     vloc_psi     :    180.87s CPU     93.25s WALL (      66 calls)
     vloc_psi:tg_ :      0.13s CPU      0.07s WALL (      66 calls)
     add_vuspsi   :     63.95s CPU     33.36s WALL (      66 calls)

     General routines
     calbec       :    112.62s CPU     65.28s WALL (      85 calls)
     fft          :      2.13s CPU      1.17s WALL (     217 calls)
     ffts         :      0.71s CPU      0.37s WALL (      31 calls)
     fftw         :    206.84s CPU    106.62s WALL (   40844 calls)
     interpolate  :      0.24s CPU      0.13s WALL (      16 calls)
 
     Parallel routines
     fft_scatt_xy :      9.04s CPU      4.70s WALL (   41092 calls)
     fft_scatt_yz :    139.92s CPU     72.23s WALL (   41092 calls)
     fft_scatt_tg :     25.76s CPU     13.28s WALL (   40844 calls)
 
     PWSCF        :  15m59.89s CPU   8m40.47s WALL

 
   This run was terminated on:  20:56:52  19Mar2021            

=------------------------------------------------------------------------------=
   JOB DONE.
=------------------------------------------------------------------------------=
