
     Program PWSCF v.6.6 starts on 20Mar2021 at 11: 6:19 

     This program is part of the open-source Quantum ESPRESSO suite
     for quantum simulation of materials; please cite
         "P. Giannozzi et al., J. Phys.:Condens. Matter 21 395502 (2009);
         "P. Giannozzi et al., J. Phys.:Condens. Matter 29 465901 (2017);
          URL http://www.quantum-espresso.org", 
     in publications or presentations arising from this work. More details at
     http://www.quantum-espresso.org/quote

     Parallel version (MPI & OpenMP), running on    1536 processor cores
     Number of MPI processes:               768
     Threads/MPI process:                     2

     MPI processes distributed on    32 nodes
     R & G space division:  proc/nbgrp/npool/nimage =     768
     wavefunctions fft division:  Y-proc x Z-proc =       2    384
     wavefunctions fft division:  task group distribution
                                  #TG    x Z-proc =       2    384
     Fft bands division:     nmany     =       1
     Reading input from input_quarzo_2304
Warning: card &CELL ignored
Warning: card / ignored

     Current dimensions of program PWSCF are:
     Max number of different atomic species (ntypx) = 10
     Max number of k-points (npk) =  40000
     Max angular momentum in pseudopotentials (lmaxx) =  3

     Subspace diagonalization in iterative solution of the eigenvalue problem:
     one sub-group per band group will be used
     ELPA distributed-memory algorithm (size of sub-group: 27* 27 procs)

     Found symmetry operation: I + (  0.0000  0.2500  0.0000)
     This is a supercell, fractional translations are disabled
 
     Parallelization info
     --------------------
     sticks:   dense  smooth     PW     G-vecs:    dense   smooth      PW
     Min          79      39     10                24567     8675    1132
     Max          80      40     11                24592     8708    1153
     Sum       60853   30415   7855             18875837  6674391  876241
 


     bravais-lattice index     =            8
     lattice parameter (alat)  =      37.1445  a.u.
     unit-cell volume          =  195269.1880 (a.u.)^3
     number of atoms/cell      =         2304
     number of atomic types    =            2
     number of electrons       =     12288.00
     number of Kohn-Sham states=         6144
     kinetic-energy cutoff     =      40.0000  Ry
     charge density cutoff     =     320.0000  Ry
     convergence threshold     =      1.0E-10
     mixing beta               =       0.7000
     number of iterations used =            8  plain     mixing
     Exchange-correlation= PBESOL
                           (   1   4  10   8   0   0   0)

     celldm(1)=  37.144472  celldm(2)=   1.732051  celldm(3)=   2.199837
     celldm(4)=   0.000000  celldm(5)=   0.000000  celldm(6)=   0.000000

     crystal axes: (cart. coord. in units of alat)
               a(1) = (   1.000000   0.000000   0.000000 )  
               a(2) = (   0.000000   1.732051   0.000000 )  
               a(3) = (   0.000000   0.000000   2.199837 )  

     reciprocal axes: (cart. coord. in units 2 pi/alat)
               b(1) = (  1.000000  0.000000  0.000000 )  
               b(2) = (  0.000000  0.577350  0.000000 )  
               b(3) = (  0.000000  0.000000  0.454579 )  


     PseudoPot. # 1 for Si read from file:
     ./Si.pbesol-n-rrkjus_psl.0.1.UPF
     MD5 check sum: 84986bd6be9e79932892c86d18f23292
     Pseudo is Ultrasoft + core correction, Zval =  4.0
     Generated using "atomic" code by A. Dal Corso v.5.0.2 svn rev. 9415
     Using radial grid of 1141 points,  4 beta functions with: 
                l(1) =   0
                l(2) =   0
                l(3) =   1
                l(4) =   1
     Q(r) pseudized with 0 coefficients 


     PseudoPot. # 2 for O  read from file:
     ./O.pbesol-n-rrkjus_psl.0.1.UPF
     MD5 check sum: 82ba247c1b02f01b1b66dbedee2f956c
     Pseudo is Ultrasoft + core correction, Zval =  6.0
     Generated using "atomic" code by A. Dal Corso v.5.0.2 svn rev. 9415
     Using radial grid of 1095 points,  4 beta functions with: 
                l(1) =   0
                l(2) =   0
                l(3) =   1
                l(4) =   1
     Q(r) pseudized with 0 coefficients 


     atomic species   valence    mass     pseudopotential
        Si             4.00    47.86700     Si( 1.00)
        O              6.00    15.99940     O ( 1.00)

      2 Sym. Ops. (no inversion) found


                                    s                        frac. trans.

      isym =  1     identity                                     

 cryst.   s( 1) = (     1          0          0      )
                  (     0          1          0      )
                  (     0          0          1      )

 cart.    s( 1) = (  1.0000000  0.0000000  0.0000000 )
                  (  0.0000000  1.0000000  0.0000000 )
                  (  0.0000000  0.0000000  1.0000000 )


      isym =  2     180 deg rotation - cart. axis [1,0,0]        

 cryst.   s( 2) = (     1          0          0      )
                  (     0         -1          0      )
                  (     0          0         -1      )

 cart.    s( 2) = (  1.0000000  0.0000000  0.0000000 )
                  (  0.0000000 -1.0000000  0.0000000 )
                  (  0.0000000  0.0000000 -1.0000000 )


     point group C_2  (2)   
     there are  2 classes
     the character table:

       E     C2   
A      1.00  1.00
B      1.00 -1.00

     the symmetry operations in each class and the name of the first element:

     E        1
          identity                                               
     C2       2
          180 deg rotation - cart. axis [1,0,0]                  

   Cartesian axes

     site n.     atom                  positions (alat units)
         1           Si  tau(   1) = (   0.1172837   0.0000000   0.0000000  )
         2           Si  tau(   2) = (   0.1172837   0.4330127   0.0000000  )
         3           Si  tau(   3) = (   0.1172837   0.8660254   0.0000000  )
         4           Si  tau(   4) = (   0.1172837   1.2990381   0.0000000  )
         5           Si  tau(   5) = (   0.3672837   0.0000000   0.0000000  )
         6           Si  tau(   6) = (   0.3672837   0.4330127   0.0000000  )
         7           Si  tau(   7) = (   0.3672837   0.8660254   0.0000000  )
         8           Si  tau(   8) = (   0.3672837   1.2990381   0.0000000  )
         9           Si  tau(   9) = (   0.6172837   0.0000000   0.0000000  )
        10           Si  tau(  10) = (   0.6172837   0.4330127   0.0000000  )
        11           Si  tau(  11) = (   0.6172837   0.8660254   0.0000000  )
        12           Si  tau(  12) = (   0.6172837   1.2990381   0.0000000  )
        13           Si  tau(  13) = (   0.8672837   0.0000000   0.0000000  )
        14           Si  tau(  14) = (   0.8672837   0.4330127   0.0000000  )
        15           Si  tau(  15) = (   0.8672837   0.8660254   0.0000000  )
        16           Si  tau(  16) = (   0.8672837   1.2990381   0.0000000  )
        17           Si  tau(  17) = (   0.2422837   0.2165063   0.0000000  )
        18           Si  tau(  18) = (   0.2422837   0.6495190   0.0000000  )
        19           Si  tau(  19) = (   0.2422837   1.0825318   0.0000000  )
        20           Si  tau(  20) = (   0.2422837   1.5155445   0.0000000  )
        21           Si  tau(  21) = (   0.4922837   0.2165063   0.0000000  )
        22           Si  tau(  22) = (   0.4922837   0.6495190   0.0000000  )
        23           Si  tau(  23) = (   0.4922837   1.0825318   0.0000000  )
        24           Si  tau(  24) = (   0.4922837   1.5155445   0.0000000  )
        25           Si  tau(  25) = (   0.7422837   0.2165063   0.0000000  )
        26           Si  tau(  26) = (   0.7422837   0.6495190   0.0000000  )
        27           Si  tau(  27) = (   0.7422837   1.0825318   0.0000000  )
        28           Si  tau(  28) = (   0.7422837   1.5155445   0.0000000  )
        29           Si  tau(  29) = (   0.9922837   0.2165063   0.0000000  )
        30           Si  tau(  30) = (   0.9922837   0.6495190   0.0000000  )
        31           Si  tau(  31) = (   0.9922837   1.0825318   0.0000000  )
        32           Si  tau(  32) = (   0.9922837   1.5155445   0.0000000  )
        33           O   tau(  33) = (   0.0696567   0.3743553   0.0318126  )
        34           O   tau(  34) = (   0.0696567   0.8073680   0.0318126  )
        35           O   tau(  35) = (   0.0696567   1.2403807   0.0318126  )
        36           O   tau(  36) = (   0.0696567   1.6733934   0.0318126  )
        37           O   tau(  37) = (   0.3196567   0.3743553   0.0318126  )
        38           O   tau(  38) = (   0.3196567   0.8073680   0.0318126  )
        39           O   tau(  39) = (   0.3196567   1.2403807   0.0318126  )
        40           O   tau(  40) = (   0.3196567   1.6733934   0.0318126  )
        41           O   tau(  41) = (   0.5696567   0.3743553   0.0318126  )
        42           O   tau(  42) = (   0.5696567   0.8073680   0.0318126  )
        43           O   tau(  43) = (   0.5696567   1.2403807   0.0318126  )
        44           O   tau(  44) = (   0.5696567   1.6733934   0.0318126  )
        45           O   tau(  45) = (   0.8196567   0.3743553   0.0318126  )
        46           O   tau(  46) = (   0.8196567   0.8073680   0.0318126  )
        47           O   tau(  47) = (   0.8196567   1.2403807   0.0318126  )
        48           O   tau(  48) = (   0.8196567   1.6733934   0.0318126  )
        49           O   tau(  49) = (   0.1946567   0.1578489   0.0318126  )
        50           O   tau(  50) = (   0.1946567   0.5908616   0.0318126  )
        51           O   tau(  51) = (   0.1946567   1.0238743   0.0318126  )
        52           O   tau(  52) = (   0.1946567   1.4568870   0.0318126  )
        53           O   tau(  53) = (   0.4446567   0.1578489   0.0318126  )
        54           O   tau(  54) = (   0.4446567   0.5908616   0.0318126  )
        55           O   tau(  55) = (   0.4446567   1.0238743   0.0318126  )
        56           O   tau(  56) = (   0.4446567   1.4568870   0.0318126  )
        57           O   tau(  57) = (   0.6946567   0.1578489   0.0318126  )
        58           O   tau(  58) = (   0.6946567   0.5908616   0.0318126  )
        59           O   tau(  59) = (   0.6946567   1.0238743   0.0318126  )
        60           O   tau(  60) = (   0.6946567   1.4568870   0.0318126  )
        61           O   tau(  61) = (   0.9446567   0.1578489   0.0318126  )
        62           O   tau(  62) = (   0.9446567   0.5908616   0.0318126  )
        63           O   tau(  63) = (   0.9446567   1.0238743   0.0318126  )
        64           O   tau(  64) = (   0.9446567   1.4568870   0.0318126  )
        65           O   tau(  65) = (   0.1643728   0.0309958   0.0598473  )
        66           O   tau(  66) = (   0.1643728   0.4640085   0.0598473  )
        67           O   tau(  67) = (   0.1643728   0.8970212   0.0598473  )
        68           O   tau(  68) = (   0.1643728   1.3300339   0.0598473  )
        69           O   tau(  69) = (   0.4143728   0.0309958   0.0598473  )
        70           O   tau(  70) = (   0.4143728   0.4640085   0.0598473  )
        71           O   tau(  71) = (   0.4143728   0.8970212   0.0598473  )
        72           O   tau(  72) = (   0.4143728   1.3300339   0.0598473  )
        73           O   tau(  73) = (   0.6643728   0.0309958   0.0598473  )
        74           O   tau(  74) = (   0.6643728   0.4640085   0.0598473  )
        75           O   tau(  75) = (   0.6643728   0.8970212   0.0598473  )
        76           O   tau(  76) = (   0.6643728   1.3300339   0.0598473  )
        77           O   tau(  77) = (   0.9143728   0.0309958   0.0598473  )
        78           O   tau(  78) = (   0.9143728   0.4640085   0.0598473  )
        79           O   tau(  79) = (   0.9143728   0.8970212   0.0598473  )
        80           O   tau(  80) = (   0.9143728   1.3300339   0.0598473  )
        81           O   tau(  81) = (   0.0393728   0.2475022   0.0598473  )
        82           O   tau(  82) = (   0.0393728   0.6805149   0.0598473  )
        83           O   tau(  83) = (   0.0393728   1.1135275   0.0598473  )
        84           O   tau(  84) = (   0.0393728   1.5465403   0.0598473  )
        85           O   tau(  85) = (   0.2893728   0.2475022   0.0598473  )
        86           O   tau(  86) = (   0.2893728   0.6805149   0.0598473  )
        87           O   tau(  87) = (   0.2893728   1.1135275   0.0598473  )
        88           O   tau(  88) = (   0.2893728   1.5465403   0.0598473  )
        89           O   tau(  89) = (   0.5393728   0.2475022   0.0598473  )
        90           O   tau(  90) = (   0.5393728   0.6805149   0.0598473  )
        91           O   tau(  91) = (   0.5393728   1.1135275   0.0598473  )
        92           O   tau(  92) = (   0.5393728   1.5465403   0.0598473  )
        93           O   tau(  93) = (   0.7893728   0.2475022   0.0598473  )
        94           O   tau(  94) = (   0.7893728   0.6805149   0.0598473  )
        95           O   tau(  95) = (   0.7893728   1.1135275   0.0598473  )
        96           O   tau(  96) = (   0.7893728   1.5465403   0.0598473  )
        97           Si  tau(  97) = (   0.1913582   0.1015707   0.0916599  )
        98           Si  tau(  98) = (   0.1913582   0.5345834   0.0916599  )
        99           Si  tau(  99) = (   0.1913582   0.9675961   0.0916599  )
       100           Si  tau( 100) = (   0.1913582   1.4006088   0.0916599  )
       101           Si  tau( 101) = (   0.4413582   0.1015707   0.0916599  )
       102           Si  tau( 102) = (   0.4413582   0.5345834   0.0916599  )
       103           Si  tau( 103) = (   0.4413582   0.9675961   0.0916599  )
       104           Si  tau( 104) = (   0.4413582   1.4006088   0.0916599  )
       105           Si  tau( 105) = (   0.6913582   0.1015707   0.0916599  )
       106           Si  tau( 106) = (   0.6913582   0.5345834   0.0916599  )
       107           Si  tau( 107) = (   0.6913582   0.9675961   0.0916599  )
       108           Si  tau( 108) = (   0.6913582   1.4006088   0.0916599  )
       109           Si  tau( 109) = (   0.9413582   0.1015707   0.0916599  )
       110           Si  tau( 110) = (   0.9413582   0.5345834   0.0916599  )
       111           Si  tau( 111) = (   0.9413582   0.9675961   0.0916599  )
       112           Si  tau( 112) = (   0.9413582   1.4006088   0.0916599  )
       113           Si  tau( 113) = (   0.0663582   0.3180770   0.0916599  )
       114           Si  tau( 114) = (   0.0663582   0.7510897   0.0916599  )
       115           Si  tau( 115) = (   0.0663582   1.1841024   0.0916599  )
       116           Si  tau( 116) = (   0.0663582   1.6171151   0.0916599  )
       117           Si  tau( 117) = (   0.3163582   0.3180770   0.0916599  )
       118           Si  tau( 118) = (   0.3163582   0.7510897   0.0916599  )
       119           Si  tau( 119) = (   0.3163582   1.1841024   0.0916599  )
       120           Si  tau( 120) = (   0.3163582   1.6171151   0.0916599  )
       121           Si  tau( 121) = (   0.5663582   0.3180770   0.0916599  )
       122           Si  tau( 122) = (   0.5663582   0.7510897   0.0916599  )
       123           Si  tau( 123) = (   0.5663582   1.1841024   0.0916599  )
       124           Si  tau( 124) = (   0.5663582   1.6171151   0.0916599  )
       125           Si  tau( 125) = (   0.8163582   0.3180770   0.0916599  )
       126           Si  tau( 126) = (   0.8163582   0.7510897   0.0916599  )
       127           Si  tau( 127) = (   0.8163582   1.1841024   0.0916599  )
       128           Si  tau( 128) = (   0.8163582   1.6171151   0.0916599  )
       129           O   tau( 129) = (   0.0159705   0.0896532   0.1234725  )
       130           O   tau( 130) = (   0.0159705   0.5226659   0.1234725  )
       131           O   tau( 131) = (   0.0159705   0.9556786   0.1234725  )
       132           O   tau( 132) = (   0.0159705   1.3886913   0.1234725  )
       133           O   tau( 133) = (   0.2659705   0.0896532   0.1234725  )
       134           O   tau( 134) = (   0.2659705   0.5226659   0.1234725  )
       135           O   tau( 135) = (   0.2659705   0.9556786   0.1234725  )
       136           O   tau( 136) = (   0.2659705   1.3886913   0.1234725  )
       137           O   tau( 137) = (   0.5159704   0.0896532   0.1234725  )
       138           O   tau( 138) = (   0.5159704   0.5226659   0.1234725  )
       139           O   tau( 139) = (   0.5159704   0.9556786   0.1234725  )
       140           O   tau( 140) = (   0.5159704   1.3886913   0.1234725  )
       141           O   tau( 141) = (   0.7659704   0.0896532   0.1234725  )
       142           O   tau( 142) = (   0.7659704   0.5226659   0.1234725  )
       143           O   tau( 143) = (   0.7659704   0.9556786   0.1234725  )
       144           O   tau( 144) = (   0.7659704   1.3886913   0.1234725  )
       145           O   tau( 145) = (   0.1409704   0.3061596   0.1234725  )
       146           O   tau( 146) = (   0.1409704   0.7391723   0.1234725  )
       147           O   tau( 147) = (   0.1409704   1.1721850   0.1234725  )
       148           O   tau( 148) = (   0.1409704   1.6051977   0.1234725  )
       149           O   tau( 149) = (   0.3909705   0.3061596   0.1234725  )
       150           O   tau( 150) = (   0.3909705   0.7391723   0.1234725  )
       151           O   tau( 151) = (   0.3909705   1.1721850   0.1234725  )
       152           O   tau( 152) = (   0.3909705   1.6051977   0.1234725  )
       153           O   tau( 153) = (   0.6409704   0.3061596   0.1234725  )
       154           O   tau( 154) = (   0.6409704   0.7391723   0.1234725  )
       155           O   tau( 155) = (   0.6409704   1.1721850   0.1234725  )
       156           O   tau( 156) = (   0.6409704   1.6051977   0.1234725  )
       157           O   tau( 157) = (   0.8909704   0.3061596   0.1234725  )
       158           O   tau( 158) = (   0.8909704   0.7391723   0.1234725  )
       159           O   tau( 159) = (   0.8909704   1.1721850   0.1234725  )
       160           O   tau( 160) = (   0.8909704   1.6051977   0.1234725  )
       161           O   tau( 161) = (   0.0159705   0.3433595   0.1515072  )
       162           O   tau( 162) = (   0.0159705   0.7763722   0.1515072  )
       163           O   tau( 163) = (   0.0159705   1.2093849   0.1515072  )
       164           O   tau( 164) = (   0.0159705   1.6423976   0.1515072  )
       165           O   tau( 165) = (   0.2659705   0.3433595   0.1515072  )
       166           O   tau( 166) = (   0.2659705   0.7763722   0.1515072  )
       167           O   tau( 167) = (   0.2659705   1.2093849   0.1515072  )
       168           O   tau( 168) = (   0.2659705   1.6423976   0.1515072  )
       169           O   tau( 169) = (   0.5159704   0.3433595   0.1515072  )
       170           O   tau( 170) = (   0.5159704   0.7763722   0.1515072  )
       171           O   tau( 171) = (   0.5159704   1.2093849   0.1515072  )
       172           O   tau( 172) = (   0.5159704   1.6423976   0.1515072  )
       173           O   tau( 173) = (   0.7659704   0.3433595   0.1515072  )
       174           O   tau( 174) = (   0.7659704   0.7763722   0.1515072  )
       175           O   tau( 175) = (   0.7659704   1.2093849   0.1515072  )
       176           O   tau( 176) = (   0.7659704   1.6423976   0.1515072  )
       177           O   tau( 177) = (   0.1409704   0.1268531   0.1515072  )
       178           O   tau( 178) = (   0.1409704   0.5598658   0.1515072  )
       179           O   tau( 179) = (   0.1409704   0.9928785   0.1515072  )
       180           O   tau( 180) = (   0.1409704   1.4258912   0.1515072  )
       181           O   tau( 181) = (   0.3909705   0.1268531   0.1515072  )
       182           O   tau( 182) = (   0.3909705   0.5598658   0.1515072  )
       183           O   tau( 183) = (   0.3909705   0.9928785   0.1515072  )
       184           O   tau( 184) = (   0.3909705   1.4258912   0.1515072  )
       185           O   tau( 185) = (   0.6409704   0.1268531   0.1515072  )
       186           O   tau( 186) = (   0.6409704   0.5598658   0.1515072  )
       187           O   tau( 187) = (   0.6409704   0.9928785   0.1515072  )
       188           O   tau( 188) = (   0.6409704   1.4258912   0.1515072  )
       189           O   tau( 189) = (   0.8909704   0.1268531   0.1515072  )
       190           O   tau( 190) = (   0.8909704   0.5598658   0.1515072  )
       191           O   tau( 191) = (   0.8909704   0.9928785   0.1515072  )
       192           O   tau( 192) = (   0.8909704   1.4258912   0.1515072  )
       193           Si  tau( 193) = (   0.1913582   0.3314420   0.1833198  )
       194           Si  tau( 194) = (   0.1913582   0.7644547   0.1833198  )
       195           Si  tau( 195) = (   0.1913582   1.1974674   0.1833198  )
       196           Si  tau( 196) = (   0.1913582   1.6304801   0.1833198  )
       197           Si  tau( 197) = (   0.4413582   0.3314420   0.1833198  )
       198           Si  tau( 198) = (   0.4413582   0.7644547   0.1833198  )
       199           Si  tau( 199) = (   0.4413582   1.1974674   0.1833198  )
       200           Si  tau( 200) = (   0.4413582   1.6304801   0.1833198  )
       201           Si  tau( 201) = (   0.6913582   0.3314420   0.1833198  )
       202           Si  tau( 202) = (   0.6913582   0.7644547   0.1833198  )
       203           Si  tau( 203) = (   0.6913582   1.1974674   0.1833198  )
       204           Si  tau( 204) = (   0.6913582   1.6304801   0.1833198  )
       205           Si  tau( 205) = (   0.9413582   0.3314420   0.1833198  )
       206           Si  tau( 206) = (   0.9413582   0.7644547   0.1833198  )
       207           Si  tau( 207) = (   0.9413582   1.1974674   0.1833198  )
       208           Si  tau( 208) = (   0.9413582   1.6304801   0.1833198  )
       209           Si  tau( 209) = (   0.0663582   0.1149357   0.1833198  )
       210           Si  tau( 210) = (   0.0663582   0.5479484   0.1833198  )
       211           Si  tau( 211) = (   0.0663582   0.9809611   0.1833198  )
       212           Si  tau( 212) = (   0.0663582   1.4139738   0.1833198  )
       213           Si  tau( 213) = (   0.3163582   0.1149357   0.1833198  )
       214           Si  tau( 214) = (   0.3163582   0.5479484   0.1833198  )
       215           Si  tau( 215) = (   0.3163582   0.9809611   0.1833198  )
       216           Si  tau( 216) = (   0.3163582   1.4139738   0.1833198  )
       217           Si  tau( 217) = (   0.5663582   0.1149357   0.1833198  )
       218           Si  tau( 218) = (   0.5663582   0.5479484   0.1833198  )
       219           Si  tau( 219) = (   0.5663582   0.9809611   0.1833198  )
       220           Si  tau( 220) = (   0.5663582   1.4139738   0.1833198  )
       221           Si  tau( 221) = (   0.8163582   0.1149357   0.1833198  )
       222           Si  tau( 222) = (   0.8163582   0.5479484   0.1833198  )
       223           Si  tau( 223) = (   0.8163582   0.9809611   0.1833198  )
       224           Si  tau( 224) = (   0.8163582   1.4139738   0.1833198  )
       225           O   tau( 225) = (   0.1643728   0.4020169   0.2151324  )
       226           O   tau( 226) = (   0.1643728   0.8350296   0.2151324  )
       227           O   tau( 227) = (   0.1643728   1.2680423   0.2151324  )
       228           O   tau( 228) = (   0.1643728   1.7010550   0.2151324  )
       229           O   tau( 229) = (   0.4143728   0.4020169   0.2151324  )
       230           O   tau( 230) = (   0.4143728   0.8350296   0.2151324  )
       231           O   tau( 231) = (   0.4143728   1.2680423   0.2151324  )
       232           O   tau( 232) = (   0.4143728   1.7010550   0.2151324  )
       233           O   tau( 233) = (   0.6643728   0.4020169   0.2151324  )
       234           O   tau( 234) = (   0.6643728   0.8350296   0.2151324  )
       235           O   tau( 235) = (   0.6643728   1.2680423   0.2151324  )
       236           O   tau( 236) = (   0.6643728   1.7010550   0.2151324  )
       237           O   tau( 237) = (   0.9143728   0.4020169   0.2151324  )
       238           O   tau( 238) = (   0.9143728   0.8350296   0.2151324  )
       239           O   tau( 239) = (   0.9143728   1.2680423   0.2151324  )
       240           O   tau( 240) = (   0.9143728   1.7010550   0.2151324  )
       241           O   tau( 241) = (   0.0393728   0.1855106   0.2151324  )
       242           O   tau( 242) = (   0.0393728   0.6185233   0.2151324  )
       243           O   tau( 243) = (   0.0393728   1.0515360   0.2151324  )
       244           O   tau( 244) = (   0.0393728   1.4845487   0.2151324  )
       245           O   tau( 245) = (   0.2893728   0.1855106   0.2151324  )
       246           O   tau( 246) = (   0.2893728   0.6185233   0.2151324  )
       247           O   tau( 247) = (   0.2893728   1.0515360   0.2151324  )
       248           O   tau( 248) = (   0.2893728   1.4845487   0.2151324  )
       249           O   tau( 249) = (   0.5393728   0.1855106   0.2151324  )
       250           O   tau( 250) = (   0.5393728   0.6185233   0.2151324  )
       251           O   tau( 251) = (   0.5393728   1.0515360   0.2151324  )
       252           O   tau( 252) = (   0.5393728   1.4845487   0.2151324  )
       253           O   tau( 253) = (   0.7893728   0.1855106   0.2151324  )
       254           O   tau( 254) = (   0.7893728   0.6185233   0.2151324  )
       255           O   tau( 255) = (   0.7893728   1.0515360   0.2151324  )
       256           O   tau( 256) = (   0.7893728   1.4845487   0.2151324  )
       257           O   tau( 257) = (   0.0696567   0.0586574   0.2431670  )
       258           O   tau( 258) = (   0.0696567   0.4916701   0.2431670  )
       259           O   tau( 259) = (   0.0696567   0.9246828   0.2431670  )
       260           O   tau( 260) = (   0.0696567   1.3576955   0.2431670  )
       261           O   tau( 261) = (   0.3196567   0.0586574   0.2431670  )
       262           O   tau( 262) = (   0.3196567   0.4916701   0.2431670  )
       263           O   tau( 263) = (   0.3196567   0.9246828   0.2431670  )
       264           O   tau( 264) = (   0.3196567   1.3576955   0.2431670  )
       265           O   tau( 265) = (   0.5696567   0.0586574   0.2431670  )
       266           O   tau( 266) = (   0.5696567   0.4916701   0.2431670  )
       267           O   tau( 267) = (   0.5696567   0.9246828   0.2431670  )
       268           O   tau( 268) = (   0.5696567   1.3576955   0.2431670  )
       269           O   tau( 269) = (   0.8196567   0.0586574   0.2431670  )
       270           O   tau( 270) = (   0.8196567   0.4916701   0.2431670  )
       271           O   tau( 271) = (   0.8196567   0.9246828   0.2431670  )
       272           O   tau( 272) = (   0.8196567   1.3576955   0.2431670  )
       273           O   tau( 273) = (   0.1946567   0.2751638   0.2431670  )
       274           O   tau( 274) = (   0.1946567   0.7081765   0.2431670  )
       275           O   tau( 275) = (   0.1946567   1.1411892   0.2431670  )
       276           O   tau( 276) = (   0.1946567   1.5742019   0.2431670  )
       277           O   tau( 277) = (   0.4446567   0.2751638   0.2431670  )
       278           O   tau( 278) = (   0.4446567   0.7081765   0.2431670  )
       279           O   tau( 279) = (   0.4446567   1.1411892   0.2431670  )
       280           O   tau( 280) = (   0.4446567   1.5742019   0.2431670  )
       281           O   tau( 281) = (   0.6946567   0.2751638   0.2431670  )
       282           O   tau( 282) = (   0.6946567   0.7081765   0.2431670  )
       283           O   tau( 283) = (   0.6946567   1.1411892   0.2431670  )
       284           O   tau( 284) = (   0.6946567   1.5742019   0.2431670  )
       285           O   tau( 285) = (   0.9446567   0.2751638   0.2431670  )
       286           O   tau( 286) = (   0.9446567   0.7081765   0.2431670  )
       287           O   tau( 287) = (   0.9446567   1.1411892   0.2431670  )
       288           O   tau( 288) = (   0.9446567   1.5742019   0.2431670  )
       289           Si  tau( 289) = (   0.1172837   0.0000000   0.2749797  )
       290           Si  tau( 290) = (   0.1172837   0.4330127   0.2749797  )
       291           Si  tau( 291) = (   0.1172837   0.8660254   0.2749797  )
       292           Si  tau( 292) = (   0.1172837   1.2990381   0.2749797  )
       293           Si  tau( 293) = (   0.3672837   0.0000000   0.2749797  )
       294           Si  tau( 294) = (   0.3672837   0.4330127   0.2749797  )
       295           Si  tau( 295) = (   0.3672837   0.8660254   0.2749797  )
       296           Si  tau( 296) = (   0.3672837   1.2990381   0.2749797  )
       297           Si  tau( 297) = (   0.6172837   0.0000000   0.2749797  )
       298           Si  tau( 298) = (   0.6172837   0.4330127   0.2749797  )
       299           Si  tau( 299) = (   0.6172837   0.8660254   0.2749797  )
       300           Si  tau( 300) = (   0.6172837   1.2990381   0.2749797  )
       301           Si  tau( 301) = (   0.8672837   0.0000000   0.2749797  )
       302           Si  tau( 302) = (   0.8672837   0.4330127   0.2749797  )
       303           Si  tau( 303) = (   0.8672837   0.8660254   0.2749797  )
       304           Si  tau( 304) = (   0.8672837   1.2990381   0.2749797  )
       305           Si  tau( 305) = (   0.2422837   0.2165063   0.2749797  )
       306           Si  tau( 306) = (   0.2422837   0.6495190   0.2749797  )
       307           Si  tau( 307) = (   0.2422837   1.0825318   0.2749797  )
       308           Si  tau( 308) = (   0.2422837   1.5155445   0.2749797  )
       309           Si  tau( 309) = (   0.4922837   0.2165063   0.2749797  )
       310           Si  tau( 310) = (   0.4922837   0.6495190   0.2749797  )
       311           Si  tau( 311) = (   0.4922837   1.0825318   0.2749797  )
       312           Si  tau( 312) = (   0.4922837   1.5155445   0.2749797  )
       313           Si  tau( 313) = (   0.7422837   0.2165063   0.2749797  )
       314           Si  tau( 314) = (   0.7422837   0.6495190   0.2749797  )
       315           Si  tau( 315) = (   0.7422837   1.0825318   0.2749797  )
       316           Si  tau( 316) = (   0.7422837   1.5155445   0.2749797  )
       317           Si  tau( 317) = (   0.9922837   0.2165063   0.2749797  )
       318           Si  tau( 318) = (   0.9922837   0.6495190   0.2749797  )
       319           Si  tau( 319) = (   0.9922837   1.0825318   0.2749797  )
       320           Si  tau( 320) = (   0.9922837   1.5155445   0.2749797  )
       321           O   tau( 321) = (   0.0696567   0.3743553   0.3067923  )
       322           O   tau( 322) = (   0.0696567   0.8073680   0.3067923  )
       323           O   tau( 323) = (   0.0696567   1.2403807   0.3067923  )
       324           O   tau( 324) = (   0.0696567   1.6733934   0.3067923  )
       325           O   tau( 325) = (   0.3196567   0.3743553   0.3067923  )
       326           O   tau( 326) = (   0.3196567   0.8073680   0.3067923  )
       327           O   tau( 327) = (   0.3196567   1.2403807   0.3067923  )
       328           O   tau( 328) = (   0.3196567   1.6733934   0.3067923  )
       329           O   tau( 329) = (   0.5696567   0.3743553   0.3067923  )
       330           O   tau( 330) = (   0.5696567   0.8073680   0.3067923  )
       331           O   tau( 331) = (   0.5696567   1.2403807   0.3067923  )
       332           O   tau( 332) = (   0.5696567   1.6733934   0.3067923  )
       333           O   tau( 333) = (   0.8196567   0.3743553   0.3067923  )
       334           O   tau( 334) = (   0.8196567   0.8073680   0.3067923  )
       335           O   tau( 335) = (   0.8196567   1.2403807   0.3067923  )
       336           O   tau( 336) = (   0.8196567   1.6733934   0.3067923  )
       337           O   tau( 337) = (   0.1946567   0.1578489   0.3067923  )
       338           O   tau( 338) = (   0.1946567   0.5908616   0.3067923  )
       339           O   tau( 339) = (   0.1946567   1.0238743   0.3067923  )
       340           O   tau( 340) = (   0.1946567   1.4568870   0.3067923  )
       341           O   tau( 341) = (   0.4446567   0.1578489   0.3067923  )
       342           O   tau( 342) = (   0.4446567   0.5908616   0.3067923  )
       343           O   tau( 343) = (   0.4446567   1.0238743   0.3067923  )
       344           O   tau( 344) = (   0.4446567   1.4568870   0.3067923  )
       345           O   tau( 345) = (   0.6946567   0.1578489   0.3067923  )
       346           O   tau( 346) = (   0.6946567   0.5908616   0.3067923  )
       347           O   tau( 347) = (   0.6946567   1.0238743   0.3067923  )
       348           O   tau( 348) = (   0.6946567   1.4568870   0.3067923  )
       349           O   tau( 349) = (   0.9446567   0.1578489   0.3067923  )
       350           O   tau( 350) = (   0.9446567   0.5908616   0.3067923  )
       351           O   tau( 351) = (   0.9446567   1.0238743   0.3067923  )
       352           O   tau( 352) = (   0.9446567   1.4568870   0.3067923  )
       353           O   tau( 353) = (   0.1643728   0.0309958   0.3348269  )
       354           O   tau( 354) = (   0.1643728   0.4640085   0.3348269  )
       355           O   tau( 355) = (   0.1643728   0.8970212   0.3348269  )
       356           O   tau( 356) = (   0.1643728   1.3300339   0.3348269  )
       357           O   tau( 357) = (   0.4143728   0.0309958   0.3348269  )
       358           O   tau( 358) = (   0.4143728   0.4640085   0.3348269  )
       359           O   tau( 359) = (   0.4143728   0.8970212   0.3348269  )
       360           O   tau( 360) = (   0.4143728   1.3300339   0.3348269  )
       361           O   tau( 361) = (   0.6643728   0.0309958   0.3348269  )
       362           O   tau( 362) = (   0.6643728   0.4640085   0.3348269  )
       363           O   tau( 363) = (   0.6643728   0.8970212   0.3348269  )
       364           O   tau( 364) = (   0.6643728   1.3300339   0.3348269  )
       365           O   tau( 365) = (   0.9143728   0.0309958   0.3348269  )
       366           O   tau( 366) = (   0.9143728   0.4640085   0.3348269  )
       367           O   tau( 367) = (   0.9143728   0.8970212   0.3348269  )
       368           O   tau( 368) = (   0.9143728   1.3300339   0.3348269  )
       369           O   tau( 369) = (   0.0393728   0.2475022   0.3348269  )
       370           O   tau( 370) = (   0.0393728   0.6805149   0.3348269  )
       371           O   tau( 371) = (   0.0393728   1.1135275   0.3348269  )
       372           O   tau( 372) = (   0.0393728   1.5465403   0.3348269  )
       373           O   tau( 373) = (   0.2893728   0.2475022   0.3348269  )
       374           O   tau( 374) = (   0.2893728   0.6805149   0.3348269  )
       375           O   tau( 375) = (   0.2893728   1.1135275   0.3348269  )
       376           O   tau( 376) = (   0.2893728   1.5465403   0.3348269  )
       377           O   tau( 377) = (   0.5393728   0.2475022   0.3348269  )
       378           O   tau( 378) = (   0.5393728   0.6805149   0.3348269  )
       379           O   tau( 379) = (   0.5393728   1.1135275   0.3348269  )
       380           O   tau( 380) = (   0.5393728   1.5465403   0.3348269  )
       381           O   tau( 381) = (   0.7893728   0.2475022   0.3348269  )
       382           O   tau( 382) = (   0.7893728   0.6805149   0.3348269  )
       383           O   tau( 383) = (   0.7893728   1.1135275   0.3348269  )
       384           O   tau( 384) = (   0.7893728   1.5465403   0.3348269  )
       385           Si  tau( 385) = (   0.1913582   0.1015707   0.3666395  )
       386           Si  tau( 386) = (   0.1913582   0.5345834   0.3666395  )
       387           Si  tau( 387) = (   0.1913582   0.9675961   0.3666395  )
       388           Si  tau( 388) = (   0.1913582   1.4006088   0.3666395  )
       389           Si  tau( 389) = (   0.4413582   0.1015707   0.3666395  )
       390           Si  tau( 390) = (   0.4413582   0.5345834   0.3666395  )
       391           Si  tau( 391) = (   0.4413582   0.9675961   0.3666395  )
       392           Si  tau( 392) = (   0.4413582   1.4006088   0.3666395  )
       393           Si  tau( 393) = (   0.6913582   0.1015707   0.3666395  )
       394           Si  tau( 394) = (   0.6913582   0.5345834   0.3666395  )
       395           Si  tau( 395) = (   0.6913582   0.9675961   0.3666395  )
       396           Si  tau( 396) = (   0.6913582   1.4006088   0.3666395  )
       397           Si  tau( 397) = (   0.9413582   0.1015707   0.3666395  )
       398           Si  tau( 398) = (   0.9413582   0.5345834   0.3666395  )
       399           Si  tau( 399) = (   0.9413582   0.9675961   0.3666395  )
       400           Si  tau( 400) = (   0.9413582   1.4006088   0.3666395  )
       401           Si  tau( 401) = (   0.0663582   0.3180770   0.3666395  )
       402           Si  tau( 402) = (   0.0663582   0.7510897   0.3666395  )
       403           Si  tau( 403) = (   0.0663582   1.1841024   0.3666395  )
       404           Si  tau( 404) = (   0.0663582   1.6171151   0.3666395  )
       405           Si  tau( 405) = (   0.3163582   0.3180770   0.3666395  )
       406           Si  tau( 406) = (   0.3163582   0.7510897   0.3666395  )
       407           Si  tau( 407) = (   0.3163582   1.1841024   0.3666395  )
       408           Si  tau( 408) = (   0.3163582   1.6171151   0.3666395  )
       409           Si  tau( 409) = (   0.5663582   0.3180770   0.3666395  )
       410           Si  tau( 410) = (   0.5663582   0.7510897   0.3666395  )
       411           Si  tau( 411) = (   0.5663582   1.1841024   0.3666395  )
       412           Si  tau( 412) = (   0.5663582   1.6171151   0.3666395  )
       413           Si  tau( 413) = (   0.8163582   0.3180770   0.3666395  )
       414           Si  tau( 414) = (   0.8163582   0.7510897   0.3666395  )
       415           Si  tau( 415) = (   0.8163582   1.1841024   0.3666395  )
       416           Si  tau( 416) = (   0.8163582   1.6171151   0.3666395  )
       417           O   tau( 417) = (   0.0159705   0.0896532   0.3984522  )
       418           O   tau( 418) = (   0.0159705   0.5226659   0.3984522  )
       419           O   tau( 419) = (   0.0159705   0.9556786   0.3984522  )
       420           O   tau( 420) = (   0.0159705   1.3886913   0.3984522  )
       421           O   tau( 421) = (   0.2659705   0.0896532   0.3984522  )
       422           O   tau( 422) = (   0.2659705   0.5226659   0.3984522  )
       423           O   tau( 423) = (   0.2659705   0.9556786   0.3984522  )
       424           O   tau( 424) = (   0.2659705   1.3886913   0.3984522  )
       425           O   tau( 425) = (   0.5159704   0.0896532   0.3984522  )
       426           O   tau( 426) = (   0.5159704   0.5226659   0.3984522  )
       427           O   tau( 427) = (   0.5159704   0.9556786   0.3984522  )
       428           O   tau( 428) = (   0.5159704   1.3886913   0.3984522  )
       429           O   tau( 429) = (   0.7659704   0.0896532   0.3984522  )
       430           O   tau( 430) = (   0.7659704   0.5226659   0.3984522  )
       431           O   tau( 431) = (   0.7659704   0.9556786   0.3984522  )
       432           O   tau( 432) = (   0.7659704   1.3886913   0.3984522  )
       433           O   tau( 433) = (   0.1409704   0.3061596   0.3984522  )
       434           O   tau( 434) = (   0.1409704   0.7391723   0.3984522  )
       435           O   tau( 435) = (   0.1409704   1.1721850   0.3984522  )
       436           O   tau( 436) = (   0.1409704   1.6051977   0.3984522  )
       437           O   tau( 437) = (   0.3909705   0.3061596   0.3984522  )
       438           O   tau( 438) = (   0.3909705   0.7391723   0.3984522  )
       439           O   tau( 439) = (   0.3909705   1.1721850   0.3984522  )
       440           O   tau( 440) = (   0.3909705   1.6051977   0.3984522  )
       441           O   tau( 441) = (   0.6409704   0.3061596   0.3984522  )
       442           O   tau( 442) = (   0.6409704   0.7391723   0.3984522  )
       443           O   tau( 443) = (   0.6409704   1.1721850   0.3984522  )
       444           O   tau( 444) = (   0.6409704   1.6051977   0.3984522  )
       445           O   tau( 445) = (   0.8909704   0.3061596   0.3984522  )
       446           O   tau( 446) = (   0.8909704   0.7391723   0.3984522  )
       447           O   tau( 447) = (   0.8909704   1.1721850   0.3984522  )
       448           O   tau( 448) = (   0.8909704   1.6051977   0.3984522  )
       449           O   tau( 449) = (   0.0159705   0.3433595   0.4264868  )
       450           O   tau( 450) = (   0.0159705   0.7763722   0.4264868  )
       451           O   tau( 451) = (   0.0159705   1.2093849   0.4264868  )
       452           O   tau( 452) = (   0.0159705   1.6423976   0.4264868  )
       453           O   tau( 453) = (   0.2659705   0.3433595   0.4264868  )
       454           O   tau( 454) = (   0.2659705   0.7763722   0.4264868  )
       455           O   tau( 455) = (   0.2659705   1.2093849   0.4264868  )
       456           O   tau( 456) = (   0.2659705   1.6423976   0.4264868  )
       457           O   tau( 457) = (   0.5159704   0.3433595   0.4264868  )
       458           O   tau( 458) = (   0.5159704   0.7763722   0.4264868  )
       459           O   tau( 459) = (   0.5159704   1.2093849   0.4264868  )
       460           O   tau( 460) = (   0.5159704   1.6423976   0.4264868  )
       461           O   tau( 461) = (   0.7659704   0.3433595   0.4264868  )
       462           O   tau( 462) = (   0.7659704   0.7763722   0.4264868  )
       463           O   tau( 463) = (   0.7659704   1.2093849   0.4264868  )
       464           O   tau( 464) = (   0.7659704   1.6423976   0.4264868  )
       465           O   tau( 465) = (   0.1409704   0.1268531   0.4264868  )
       466           O   tau( 466) = (   0.1409704   0.5598658   0.4264868  )
       467           O   tau( 467) = (   0.1409704   0.9928785   0.4264868  )
       468           O   tau( 468) = (   0.1409704   1.4258912   0.4264868  )
       469           O   tau( 469) = (   0.3909705   0.1268531   0.4264868  )
       470           O   tau( 470) = (   0.3909705   0.5598658   0.4264868  )
       471           O   tau( 471) = (   0.3909705   0.9928785   0.4264868  )
       472           O   tau( 472) = (   0.3909705   1.4258912   0.4264868  )
       473           O   tau( 473) = (   0.6409704   0.1268531   0.4264868  )
       474           O   tau( 474) = (   0.6409704   0.5598658   0.4264868  )
       475           O   tau( 475) = (   0.6409704   0.9928785   0.4264868  )
       476           O   tau( 476) = (   0.6409704   1.4258912   0.4264868  )
       477           O   tau( 477) = (   0.8909704   0.1268531   0.4264868  )
       478           O   tau( 478) = (   0.8909704   0.5598658   0.4264868  )
       479           O   tau( 479) = (   0.8909704   0.9928785   0.4264868  )
       480           O   tau( 480) = (   0.8909704   1.4258912   0.4264868  )
       481           Si  tau( 481) = (   0.1913582   0.3314420   0.4582994  )
       482           Si  tau( 482) = (   0.1913582   0.7644547   0.4582994  )
       483           Si  tau( 483) = (   0.1913582   1.1974674   0.4582994  )
       484           Si  tau( 484) = (   0.1913582   1.6304801   0.4582994  )
       485           Si  tau( 485) = (   0.4413582   0.3314420   0.4582994  )
       486           Si  tau( 486) = (   0.4413582   0.7644547   0.4582994  )
       487           Si  tau( 487) = (   0.4413582   1.1974674   0.4582994  )
       488           Si  tau( 488) = (   0.4413582   1.6304801   0.4582994  )
       489           Si  tau( 489) = (   0.6913582   0.3314420   0.4582994  )
       490           Si  tau( 490) = (   0.6913582   0.7644547   0.4582994  )
       491           Si  tau( 491) = (   0.6913582   1.1974674   0.4582994  )
       492           Si  tau( 492) = (   0.6913582   1.6304801   0.4582994  )
       493           Si  tau( 493) = (   0.9413582   0.3314420   0.4582994  )
       494           Si  tau( 494) = (   0.9413582   0.7644547   0.4582994  )
       495           Si  tau( 495) = (   0.9413582   1.1974674   0.4582994  )
       496           Si  tau( 496) = (   0.9413582   1.6304801   0.4582994  )
       497           Si  tau( 497) = (   0.0663582   0.1149357   0.4582994  )
       498           Si  tau( 498) = (   0.0663582   0.5479484   0.4582994  )
       499           Si  tau( 499) = (   0.0663582   0.9809611   0.4582994  )
       500           Si  tau( 500) = (   0.0663582   1.4139738   0.4582994  )
       501           Si  tau( 501) = (   0.3163582   0.1149357   0.4582994  )
       502           Si  tau( 502) = (   0.3163582   0.5479484   0.4582994  )
       503           Si  tau( 503) = (   0.3163582   0.9809611   0.4582994  )
       504           Si  tau( 504) = (   0.3163582   1.4139738   0.4582994  )
       505           Si  tau( 505) = (   0.5663582   0.1149357   0.4582994  )
       506           Si  tau( 506) = (   0.5663582   0.5479484   0.4582994  )
       507           Si  tau( 507) = (   0.5663582   0.9809611   0.4582994  )
       508           Si  tau( 508) = (   0.5663582   1.4139738   0.4582994  )
       509           Si  tau( 509) = (   0.8163582   0.1149357   0.4582994  )
       510           Si  tau( 510) = (   0.8163582   0.5479484   0.4582994  )
       511           Si  tau( 511) = (   0.8163582   0.9809611   0.4582994  )
       512           Si  tau( 512) = (   0.8163582   1.4139738   0.4582994  )
       513           O   tau( 513) = (   0.1643728   0.4020169   0.4901120  )
       514           O   tau( 514) = (   0.1643728   0.8350296   0.4901120  )
       515           O   tau( 515) = (   0.1643728   1.2680423   0.4901120  )
       516           O   tau( 516) = (   0.1643728   1.7010550   0.4901120  )
       517           O   tau( 517) = (   0.4143728   0.4020169   0.4901120  )
       518           O   tau( 518) = (   0.4143728   0.8350296   0.4901120  )
       519           O   tau( 519) = (   0.4143728   1.2680423   0.4901120  )
       520           O   tau( 520) = (   0.4143728   1.7010550   0.4901120  )
       521           O   tau( 521) = (   0.6643728   0.4020169   0.4901120  )
       522           O   tau( 522) = (   0.6643728   0.8350296   0.4901120  )
       523           O   tau( 523) = (   0.6643728   1.2680423   0.4901120  )
       524           O   tau( 524) = (   0.6643728   1.7010550   0.4901120  )
       525           O   tau( 525) = (   0.9143728   0.4020169   0.4901120  )
       526           O   tau( 526) = (   0.9143728   0.8350296   0.4901120  )
       527           O   tau( 527) = (   0.9143728   1.2680423   0.4901120  )
       528           O   tau( 528) = (   0.9143728   1.7010550   0.4901120  )
       529           O   tau( 529) = (   0.0393728   0.1855106   0.4901120  )
       530           O   tau( 530) = (   0.0393728   0.6185233   0.4901120  )
       531           O   tau( 531) = (   0.0393728   1.0515360   0.4901120  )
       532           O   tau( 532) = (   0.0393728   1.4845487   0.4901120  )
       533           O   tau( 533) = (   0.2893728   0.1855106   0.4901120  )
       534           O   tau( 534) = (   0.2893728   0.6185233   0.4901120  )
       535           O   tau( 535) = (   0.2893728   1.0515360   0.4901120  )
       536           O   tau( 536) = (   0.2893728   1.4845487   0.4901120  )
       537           O   tau( 537) = (   0.5393728   0.1855106   0.4901120  )
       538           O   tau( 538) = (   0.5393728   0.6185233   0.4901120  )
       539           O   tau( 539) = (   0.5393728   1.0515360   0.4901120  )
       540           O   tau( 540) = (   0.5393728   1.4845487   0.4901120  )
       541           O   tau( 541) = (   0.7893728   0.1855106   0.4901120  )
       542           O   tau( 542) = (   0.7893728   0.6185233   0.4901120  )
       543           O   tau( 543) = (   0.7893728   1.0515360   0.4901120  )
       544           O   tau( 544) = (   0.7893728   1.4845487   0.4901120  )
       545           O   tau( 545) = (   0.0696567   0.0586574   0.5181467  )
       546           O   tau( 546) = (   0.0696567   0.4916701   0.5181467  )
       547           O   tau( 547) = (   0.0696567   0.9246828   0.5181467  )
       548           O   tau( 548) = (   0.0696567   1.3576955   0.5181467  )
       549           O   tau( 549) = (   0.3196567   0.0586574   0.5181467  )
       550           O   tau( 550) = (   0.3196567   0.4916701   0.5181467  )
       551           O   tau( 551) = (   0.3196567   0.9246828   0.5181467  )
       552           O   tau( 552) = (   0.3196567   1.3576955   0.5181467  )
       553           O   tau( 553) = (   0.5696567   0.0586574   0.5181467  )
       554           O   tau( 554) = (   0.5696567   0.4916701   0.5181467  )
       555           O   tau( 555) = (   0.5696567   0.9246828   0.5181467  )
       556           O   tau( 556) = (   0.5696567   1.3576955   0.5181467  )
       557           O   tau( 557) = (   0.8196567   0.0586574   0.5181467  )
       558           O   tau( 558) = (   0.8196567   0.4916701   0.5181467  )
       559           O   tau( 559) = (   0.8196567   0.9246828   0.5181467  )
       560           O   tau( 560) = (   0.8196567   1.3576955   0.5181467  )
       561           O   tau( 561) = (   0.1946567   0.2751638   0.5181467  )
       562           O   tau( 562) = (   0.1946567   0.7081765   0.5181467  )
       563           O   tau( 563) = (   0.1946567   1.1411892   0.5181467  )
       564           O   tau( 564) = (   0.1946567   1.5742019   0.5181467  )
       565           O   tau( 565) = (   0.4446567   0.2751638   0.5181467  )
       566           O   tau( 566) = (   0.4446567   0.7081765   0.5181467  )
       567           O   tau( 567) = (   0.4446567   1.1411892   0.5181467  )
       568           O   tau( 568) = (   0.4446567   1.5742019   0.5181467  )
       569           O   tau( 569) = (   0.6946567   0.2751638   0.5181467  )
       570           O   tau( 570) = (   0.6946567   0.7081765   0.5181467  )
       571           O   tau( 571) = (   0.6946567   1.1411892   0.5181467  )
       572           O   tau( 572) = (   0.6946567   1.5742019   0.5181467  )
       573           O   tau( 573) = (   0.9446567   0.2751638   0.5181467  )
       574           O   tau( 574) = (   0.9446567   0.7081765   0.5181467  )
       575           O   tau( 575) = (   0.9446567   1.1411892   0.5181467  )
       576           O   tau( 576) = (   0.9446567   1.5742019   0.5181467  )
       577           Si  tau( 577) = (   0.1172837   0.0000000   0.5499593  )
       578           Si  tau( 578) = (   0.1172837   0.4330127   0.5499593  )
       579           Si  tau( 579) = (   0.1172837   0.8660254   0.5499593  )
       580           Si  tau( 580) = (   0.1172837   1.2990381   0.5499593  )
       581           Si  tau( 581) = (   0.3672837   0.0000000   0.5499593  )
       582           Si  tau( 582) = (   0.3672837   0.4330127   0.5499593  )
       583           Si  tau( 583) = (   0.3672837   0.8660254   0.5499593  )
       584           Si  tau( 584) = (   0.3672837   1.2990381   0.5499593  )
       585           Si  tau( 585) = (   0.6172837   0.0000000   0.5499593  )
       586           Si  tau( 586) = (   0.6172837   0.4330127   0.5499593  )
       587           Si  tau( 587) = (   0.6172837   0.8660254   0.5499593  )
       588           Si  tau( 588) = (   0.6172837   1.2990381   0.5499593  )
       589           Si  tau( 589) = (   0.8672837   0.0000000   0.5499593  )
       590           Si  tau( 590) = (   0.8672837   0.4330127   0.5499593  )
       591           Si  tau( 591) = (   0.8672837   0.8660254   0.5499593  )
       592           Si  tau( 592) = (   0.8672837   1.2990381   0.5499593  )
       593           Si  tau( 593) = (   0.2422837   0.2165063   0.5499593  )
       594           Si  tau( 594) = (   0.2422837   0.6495190   0.5499593  )
       595           Si  tau( 595) = (   0.2422837   1.0825318   0.5499593  )
       596           Si  tau( 596) = (   0.2422837   1.5155445   0.5499593  )
       597           Si  tau( 597) = (   0.4922837   0.2165063   0.5499593  )
       598           Si  tau( 598) = (   0.4922837   0.6495190   0.5499593  )
       599           Si  tau( 599) = (   0.4922837   1.0825318   0.5499593  )
       600           Si  tau( 600) = (   0.4922837   1.5155445   0.5499593  )
       601           Si  tau( 601) = (   0.7422837   0.2165063   0.5499593  )
       602           Si  tau( 602) = (   0.7422837   0.6495190   0.5499593  )
       603           Si  tau( 603) = (   0.7422837   1.0825318   0.5499593  )
       604           Si  tau( 604) = (   0.7422837   1.5155445   0.5499593  )
       605           Si  tau( 605) = (   0.9922837   0.2165063   0.5499593  )
       606           Si  tau( 606) = (   0.9922837   0.6495190   0.5499593  )
       607           Si  tau( 607) = (   0.9922837   1.0825318   0.5499593  )
       608           Si  tau( 608) = (   0.9922837   1.5155445   0.5499593  )
       609           O   tau( 609) = (   0.0696567   0.3743553   0.5817719  )
       610           O   tau( 610) = (   0.0696567   0.8073680   0.5817719  )
       611           O   tau( 611) = (   0.0696567   1.2403807   0.5817719  )
       612           O   tau( 612) = (   0.0696567   1.6733934   0.5817719  )
       613           O   tau( 613) = (   0.3196567   0.3743553   0.5817719  )
       614           O   tau( 614) = (   0.3196567   0.8073680   0.5817719  )
       615           O   tau( 615) = (   0.3196567   1.2403807   0.5817719  )
       616           O   tau( 616) = (   0.3196567   1.6733934   0.5817719  )
       617           O   tau( 617) = (   0.5696567   0.3743553   0.5817719  )
       618           O   tau( 618) = (   0.5696567   0.8073680   0.5817719  )
       619           O   tau( 619) = (   0.5696567   1.2403807   0.5817719  )
       620           O   tau( 620) = (   0.5696567   1.6733934   0.5817719  )
       621           O   tau( 621) = (   0.8196567   0.3743553   0.5817719  )
       622           O   tau( 622) = (   0.8196567   0.8073680   0.5817719  )
       623           O   tau( 623) = (   0.8196567   1.2403807   0.5817719  )
       624           O   tau( 624) = (   0.8196567   1.6733934   0.5817719  )
       625           O   tau( 625) = (   0.1946567   0.1578489   0.5817719  )
       626           O   tau( 626) = (   0.1946567   0.5908616   0.5817719  )
       627           O   tau( 627) = (   0.1946567   1.0238743   0.5817719  )
       628           O   tau( 628) = (   0.1946567   1.4568870   0.5817719  )
       629           O   tau( 629) = (   0.4446567   0.1578489   0.5817719  )
       630           O   tau( 630) = (   0.4446567   0.5908616   0.5817719  )
       631           O   tau( 631) = (   0.4446567   1.0238743   0.5817719  )
       632           O   tau( 632) = (   0.4446567   1.4568870   0.5817719  )
       633           O   tau( 633) = (   0.6946567   0.1578489   0.5817719  )
       634           O   tau( 634) = (   0.6946567   0.5908616   0.5817719  )
       635           O   tau( 635) = (   0.6946567   1.0238743   0.5817719  )
       636           O   tau( 636) = (   0.6946567   1.4568870   0.5817719  )
       637           O   tau( 637) = (   0.9446567   0.1578489   0.5817719  )
       638           O   tau( 638) = (   0.9446567   0.5908616   0.5817719  )
       639           O   tau( 639) = (   0.9446567   1.0238743   0.5817719  )
       640           O   tau( 640) = (   0.9446567   1.4568870   0.5817719  )
       641           O   tau( 641) = (   0.1643728   0.0309958   0.6098066  )
       642           O   tau( 642) = (   0.1643728   0.4640085   0.6098066  )
       643           O   tau( 643) = (   0.1643728   0.8970212   0.6098066  )
       644           O   tau( 644) = (   0.1643728   1.3300339   0.6098066  )
       645           O   tau( 645) = (   0.4143728   0.0309958   0.6098066  )
       646           O   tau( 646) = (   0.4143728   0.4640085   0.6098066  )
       647           O   tau( 647) = (   0.4143728   0.8970212   0.6098066  )
       648           O   tau( 648) = (   0.4143728   1.3300339   0.6098066  )
       649           O   tau( 649) = (   0.6643728   0.0309958   0.6098066  )
       650           O   tau( 650) = (   0.6643728   0.4640085   0.6098066  )
       651           O   tau( 651) = (   0.6643728   0.8970212   0.6098066  )
       652           O   tau( 652) = (   0.6643728   1.3300339   0.6098066  )
       653           O   tau( 653) = (   0.9143728   0.0309958   0.6098066  )
       654           O   tau( 654) = (   0.9143728   0.4640085   0.6098066  )
       655           O   tau( 655) = (   0.9143728   0.8970212   0.6098066  )
       656           O   tau( 656) = (   0.9143728   1.3300339   0.6098066  )
       657           O   tau( 657) = (   0.0393728   0.2475022   0.6098066  )
       658           O   tau( 658) = (   0.0393728   0.6805149   0.6098066  )
       659           O   tau( 659) = (   0.0393728   1.1135275   0.6098066  )
       660           O   tau( 660) = (   0.0393728   1.5465403   0.6098066  )
       661           O   tau( 661) = (   0.2893728   0.2475022   0.6098066  )
       662           O   tau( 662) = (   0.2893728   0.6805149   0.6098066  )
       663           O   tau( 663) = (   0.2893728   1.1135275   0.6098066  )
       664           O   tau( 664) = (   0.2893728   1.5465403   0.6098066  )
       665           O   tau( 665) = (   0.5393728   0.2475022   0.6098066  )
       666           O   tau( 666) = (   0.5393728   0.6805149   0.6098066  )
       667           O   tau( 667) = (   0.5393728   1.1135275   0.6098066  )
       668           O   tau( 668) = (   0.5393728   1.5465403   0.6098066  )
       669           O   tau( 669) = (   0.7893728   0.2475022   0.6098066  )
       670           O   tau( 670) = (   0.7893728   0.6805149   0.6098066  )
       671           O   tau( 671) = (   0.7893728   1.1135275   0.6098066  )
       672           O   tau( 672) = (   0.7893728   1.5465403   0.6098066  )
       673           Si  tau( 673) = (   0.1913582   0.1015707   0.6416192  )
       674           Si  tau( 674) = (   0.1913582   0.5345834   0.6416192  )
       675           Si  tau( 675) = (   0.1913582   0.9675961   0.6416192  )
       676           Si  tau( 676) = (   0.1913582   1.4006088   0.6416192  )
       677           Si  tau( 677) = (   0.4413582   0.1015707   0.6416192  )
       678           Si  tau( 678) = (   0.4413582   0.5345834   0.6416192  )
       679           Si  tau( 679) = (   0.4413582   0.9675961   0.6416192  )
       680           Si  tau( 680) = (   0.4413582   1.4006088   0.6416192  )
       681           Si  tau( 681) = (   0.6913582   0.1015707   0.6416192  )
       682           Si  tau( 682) = (   0.6913582   0.5345834   0.6416192  )
       683           Si  tau( 683) = (   0.6913582   0.9675961   0.6416192  )
       684           Si  tau( 684) = (   0.6913582   1.4006088   0.6416192  )
       685           Si  tau( 685) = (   0.9413582   0.1015707   0.6416192  )
       686           Si  tau( 686) = (   0.9413582   0.5345834   0.6416192  )
       687           Si  tau( 687) = (   0.9413582   0.9675961   0.6416192  )
       688           Si  tau( 688) = (   0.9413582   1.4006088   0.6416192  )
       689           Si  tau( 689) = (   0.0663582   0.3180770   0.6416192  )
       690           Si  tau( 690) = (   0.0663582   0.7510897   0.6416192  )
       691           Si  tau( 691) = (   0.0663582   1.1841024   0.6416192  )
       692           Si  tau( 692) = (   0.0663582   1.6171151   0.6416192  )
       693           Si  tau( 693) = (   0.3163582   0.3180770   0.6416192  )
       694           Si  tau( 694) = (   0.3163582   0.7510897   0.6416192  )
       695           Si  tau( 695) = (   0.3163582   1.1841024   0.6416192  )
       696           Si  tau( 696) = (   0.3163582   1.6171151   0.6416192  )
       697           Si  tau( 697) = (   0.5663582   0.3180770   0.6416192  )
       698           Si  tau( 698) = (   0.5663582   0.7510897   0.6416192  )
       699           Si  tau( 699) = (   0.5663582   1.1841024   0.6416192  )
       700           Si  tau( 700) = (   0.5663582   1.6171151   0.6416192  )
       701           Si  tau( 701) = (   0.8163582   0.3180770   0.6416192  )
       702           Si  tau( 702) = (   0.8163582   0.7510897   0.6416192  )
       703           Si  tau( 703) = (   0.8163582   1.1841024   0.6416192  )
       704           Si  tau( 704) = (   0.8163582   1.6171151   0.6416192  )
       705           O   tau( 705) = (   0.0159705   0.0896532   0.6734318  )
       706           O   tau( 706) = (   0.0159705   0.5226659   0.6734318  )
       707           O   tau( 707) = (   0.0159705   0.9556786   0.6734318  )
       708           O   tau( 708) = (   0.0159705   1.3886913   0.6734318  )
       709           O   tau( 709) = (   0.2659705   0.0896532   0.6734318  )
       710           O   tau( 710) = (   0.2659705   0.5226659   0.6734318  )
       711           O   tau( 711) = (   0.2659705   0.9556786   0.6734318  )
       712           O   tau( 712) = (   0.2659705   1.3886913   0.6734318  )
       713           O   tau( 713) = (   0.5159704   0.0896532   0.6734318  )
       714           O   tau( 714) = (   0.5159704   0.5226659   0.6734318  )
       715           O   tau( 715) = (   0.5159704   0.9556786   0.6734318  )
       716           O   tau( 716) = (   0.5159704   1.3886913   0.6734318  )
       717           O   tau( 717) = (   0.7659704   0.0896532   0.6734318  )
       718           O   tau( 718) = (   0.7659704   0.5226659   0.6734318  )
       719           O   tau( 719) = (   0.7659704   0.9556786   0.6734318  )
       720           O   tau( 720) = (   0.7659704   1.3886913   0.6734318  )
       721           O   tau( 721) = (   0.1409704   0.3061596   0.6734318  )
       722           O   tau( 722) = (   0.1409704   0.7391723   0.6734318  )
       723           O   tau( 723) = (   0.1409704   1.1721850   0.6734318  )
       724           O   tau( 724) = (   0.1409704   1.6051977   0.6734318  )
       725           O   tau( 725) = (   0.3909705   0.3061596   0.6734318  )
       726           O   tau( 726) = (   0.3909705   0.7391723   0.6734318  )
       727           O   tau( 727) = (   0.3909705   1.1721850   0.6734318  )
       728           O   tau( 728) = (   0.3909705   1.6051977   0.6734318  )
       729           O   tau( 729) = (   0.6409704   0.3061596   0.6734318  )
       730           O   tau( 730) = (   0.6409704   0.7391723   0.6734318  )
       731           O   tau( 731) = (   0.6409704   1.1721850   0.6734318  )
       732           O   tau( 732) = (   0.6409704   1.6051977   0.6734318  )
       733           O   tau( 733) = (   0.8909704   0.3061596   0.6734318  )
       734           O   tau( 734) = (   0.8909704   0.7391723   0.6734318  )
       735           O   tau( 735) = (   0.8909704   1.1721850   0.6734318  )
       736           O   tau( 736) = (   0.8909704   1.6051977   0.6734318  )
       737           O   tau( 737) = (   0.0159705   0.3433595   0.7014664  )
       738           O   tau( 738) = (   0.0159705   0.7763722   0.7014664  )
       739           O   tau( 739) = (   0.0159705   1.2093849   0.7014664  )
       740           O   tau( 740) = (   0.0159705   1.6423976   0.7014664  )
       741           O   tau( 741) = (   0.2659705   0.3433595   0.7014664  )
       742           O   tau( 742) = (   0.2659705   0.7763722   0.7014664  )
       743           O   tau( 743) = (   0.2659705   1.2093849   0.7014664  )
       744           O   tau( 744) = (   0.2659705   1.6423976   0.7014664  )
       745           O   tau( 745) = (   0.5159704   0.3433595   0.7014664  )
       746           O   tau( 746) = (   0.5159704   0.7763722   0.7014664  )
       747           O   tau( 747) = (   0.5159704   1.2093849   0.7014664  )
       748           O   tau( 748) = (   0.5159704   1.6423976   0.7014664  )
       749           O   tau( 749) = (   0.7659704   0.3433595   0.7014664  )
       750           O   tau( 750) = (   0.7659704   0.7763722   0.7014664  )
       751           O   tau( 751) = (   0.7659704   1.2093849   0.7014664  )
       752           O   tau( 752) = (   0.7659704   1.6423976   0.7014664  )
       753           O   tau( 753) = (   0.1409704   0.1268531   0.7014664  )
       754           O   tau( 754) = (   0.1409704   0.5598658   0.7014664  )
       755           O   tau( 755) = (   0.1409704   0.9928785   0.7014664  )
       756           O   tau( 756) = (   0.1409704   1.4258912   0.7014664  )
       757           O   tau( 757) = (   0.3909705   0.1268531   0.7014664  )
       758           O   tau( 758) = (   0.3909705   0.5598658   0.7014664  )
       759           O   tau( 759) = (   0.3909705   0.9928785   0.7014664  )
       760           O   tau( 760) = (   0.3909705   1.4258912   0.7014664  )
       761           O   tau( 761) = (   0.6409704   0.1268531   0.7014664  )
       762           O   tau( 762) = (   0.6409704   0.5598658   0.7014664  )
       763           O   tau( 763) = (   0.6409704   0.9928785   0.7014664  )
       764           O   tau( 764) = (   0.6409704   1.4258912   0.7014664  )
       765           O   tau( 765) = (   0.8909704   0.1268531   0.7014664  )
       766           O   tau( 766) = (   0.8909704   0.5598658   0.7014664  )
       767           O   tau( 767) = (   0.8909704   0.9928785   0.7014664  )
       768           O   tau( 768) = (   0.8909704   1.4258912   0.7014664  )
       769           Si  tau( 769) = (   0.1913582   0.3314420   0.7332791  )
       770           Si  tau( 770) = (   0.1913582   0.7644547   0.7332791  )
       771           Si  tau( 771) = (   0.1913582   1.1974674   0.7332791  )
       772           Si  tau( 772) = (   0.1913582   1.6304801   0.7332791  )
       773           Si  tau( 773) = (   0.4413582   0.3314420   0.7332791  )
       774           Si  tau( 774) = (   0.4413582   0.7644547   0.7332791  )
       775           Si  tau( 775) = (   0.4413582   1.1974674   0.7332791  )
       776           Si  tau( 776) = (   0.4413582   1.6304801   0.7332791  )
       777           Si  tau( 777) = (   0.6913582   0.3314420   0.7332791  )
       778           Si  tau( 778) = (   0.6913582   0.7644547   0.7332791  )
       779           Si  tau( 779) = (   0.6913582   1.1974674   0.7332791  )
       780           Si  tau( 780) = (   0.6913582   1.6304801   0.7332791  )
       781           Si  tau( 781) = (   0.9413582   0.3314420   0.7332791  )
       782           Si  tau( 782) = (   0.9413582   0.7644547   0.7332791  )
       783           Si  tau( 783) = (   0.9413582   1.1974674   0.7332791  )
       784           Si  tau( 784) = (   0.9413582   1.6304801   0.7332791  )
       785           Si  tau( 785) = (   0.0663582   0.1149357   0.7332791  )
       786           Si  tau( 786) = (   0.0663582   0.5479484   0.7332791  )
       787           Si  tau( 787) = (   0.0663582   0.9809611   0.7332791  )
       788           Si  tau( 788) = (   0.0663582   1.4139738   0.7332791  )
       789           Si  tau( 789) = (   0.3163582   0.1149357   0.7332791  )
       790           Si  tau( 790) = (   0.3163582   0.5479484   0.7332791  )
       791           Si  tau( 791) = (   0.3163582   0.9809611   0.7332791  )
       792           Si  tau( 792) = (   0.3163582   1.4139738   0.7332791  )
       793           Si  tau( 793) = (   0.5663582   0.1149357   0.7332791  )
       794           Si  tau( 794) = (   0.5663582   0.5479484   0.7332791  )
       795           Si  tau( 795) = (   0.5663582   0.9809611   0.7332791  )
       796           Si  tau( 796) = (   0.5663582   1.4139738   0.7332791  )
       797           Si  tau( 797) = (   0.8163582   0.1149357   0.7332791  )
       798           Si  tau( 798) = (   0.8163582   0.5479484   0.7332791  )
       799           Si  tau( 799) = (   0.8163582   0.9809611   0.7332791  )
       800           Si  tau( 800) = (   0.8163582   1.4139738   0.7332791  )
       801           O   tau( 801) = (   0.1643728   0.4020169   0.7650917  )
       802           O   tau( 802) = (   0.1643728   0.8350296   0.7650917  )
       803           O   tau( 803) = (   0.1643728   1.2680423   0.7650917  )
       804           O   tau( 804) = (   0.1643728   1.7010550   0.7650917  )
       805           O   tau( 805) = (   0.4143728   0.4020169   0.7650917  )
       806           O   tau( 806) = (   0.4143728   0.8350296   0.7650917  )
       807           O   tau( 807) = (   0.4143728   1.2680423   0.7650917  )
       808           O   tau( 808) = (   0.4143728   1.7010550   0.7650917  )
       809           O   tau( 809) = (   0.6643728   0.4020169   0.7650917  )
       810           O   tau( 810) = (   0.6643728   0.8350296   0.7650917  )
       811           O   tau( 811) = (   0.6643728   1.2680423   0.7650917  )
       812           O   tau( 812) = (   0.6643728   1.7010550   0.7650917  )
       813           O   tau( 813) = (   0.9143728   0.4020169   0.7650917  )
       814           O   tau( 814) = (   0.9143728   0.8350296   0.7650917  )
       815           O   tau( 815) = (   0.9143728   1.2680423   0.7650917  )
       816           O   tau( 816) = (   0.9143728   1.7010550   0.7650917  )
       817           O   tau( 817) = (   0.0393728   0.1855106   0.7650917  )
       818           O   tau( 818) = (   0.0393728   0.6185233   0.7650917  )
       819           O   tau( 819) = (   0.0393728   1.0515360   0.7650917  )
       820           O   tau( 820) = (   0.0393728   1.4845487   0.7650917  )
       821           O   tau( 821) = (   0.2893728   0.1855106   0.7650917  )
       822           O   tau( 822) = (   0.2893728   0.6185233   0.7650917  )
       823           O   tau( 823) = (   0.2893728   1.0515360   0.7650917  )
       824           O   tau( 824) = (   0.2893728   1.4845487   0.7650917  )
       825           O   tau( 825) = (   0.5393728   0.1855106   0.7650917  )
       826           O   tau( 826) = (   0.5393728   0.6185233   0.7650917  )
       827           O   tau( 827) = (   0.5393728   1.0515360   0.7650917  )
       828           O   tau( 828) = (   0.5393728   1.4845487   0.7650917  )
       829           O   tau( 829) = (   0.7893728   0.1855106   0.7650917  )
       830           O   tau( 830) = (   0.7893728   0.6185233   0.7650917  )
       831           O   tau( 831) = (   0.7893728   1.0515360   0.7650917  )
       832           O   tau( 832) = (   0.7893728   1.4845487   0.7650917  )
       833           O   tau( 833) = (   0.0696567   0.0586574   0.7931263  )
       834           O   tau( 834) = (   0.0696567   0.4916701   0.7931263  )
       835           O   tau( 835) = (   0.0696567   0.9246828   0.7931263  )
       836           O   tau( 836) = (   0.0696567   1.3576955   0.7931263  )
       837           O   tau( 837) = (   0.3196567   0.0586574   0.7931263  )
       838           O   tau( 838) = (   0.3196567   0.4916701   0.7931263  )
       839           O   tau( 839) = (   0.3196567   0.9246828   0.7931263  )
       840           O   tau( 840) = (   0.3196567   1.3576955   0.7931263  )
       841           O   tau( 841) = (   0.5696567   0.0586574   0.7931263  )
       842           O   tau( 842) = (   0.5696567   0.4916701   0.7931263  )
       843           O   tau( 843) = (   0.5696567   0.9246828   0.7931263  )
       844           O   tau( 844) = (   0.5696567   1.3576955   0.7931263  )
       845           O   tau( 845) = (   0.8196567   0.0586574   0.7931263  )
       846           O   tau( 846) = (   0.8196567   0.4916701   0.7931263  )
       847           O   tau( 847) = (   0.8196567   0.9246828   0.7931263  )
       848           O   tau( 848) = (   0.8196567   1.3576955   0.7931263  )
       849           O   tau( 849) = (   0.1946567   0.2751638   0.7931263  )
       850           O   tau( 850) = (   0.1946567   0.7081765   0.7931263  )
       851           O   tau( 851) = (   0.1946567   1.1411892   0.7931263  )
       852           O   tau( 852) = (   0.1946567   1.5742019   0.7931263  )
       853           O   tau( 853) = (   0.4446567   0.2751638   0.7931263  )
       854           O   tau( 854) = (   0.4446567   0.7081765   0.7931263  )
       855           O   tau( 855) = (   0.4446567   1.1411892   0.7931263  )
       856           O   tau( 856) = (   0.4446567   1.5742019   0.7931263  )
       857           O   tau( 857) = (   0.6946567   0.2751638   0.7931263  )
       858           O   tau( 858) = (   0.6946567   0.7081765   0.7931263  )
       859           O   tau( 859) = (   0.6946567   1.1411892   0.7931263  )
       860           O   tau( 860) = (   0.6946567   1.5742019   0.7931263  )
       861           O   tau( 861) = (   0.9446567   0.2751638   0.7931263  )
       862           O   tau( 862) = (   0.9446567   0.7081765   0.7931263  )
       863           O   tau( 863) = (   0.9446567   1.1411892   0.7931263  )
       864           O   tau( 864) = (   0.9446567   1.5742019   0.7931263  )
       865           Si  tau( 865) = (   0.1172837   0.0000000   0.8249389  )
       866           Si  tau( 866) = (   0.1172837   0.4330127   0.8249389  )
       867           Si  tau( 867) = (   0.1172837   0.8660254   0.8249389  )
       868           Si  tau( 868) = (   0.1172837   1.2990381   0.8249389  )
       869           Si  tau( 869) = (   0.3672837   0.0000000   0.8249389  )
       870           Si  tau( 870) = (   0.3672837   0.4330127   0.8249389  )
       871           Si  tau( 871) = (   0.3672837   0.8660254   0.8249389  )
       872           Si  tau( 872) = (   0.3672837   1.2990381   0.8249389  )
       873           Si  tau( 873) = (   0.6172837   0.0000000   0.8249389  )
       874           Si  tau( 874) = (   0.6172837   0.4330127   0.8249389  )
       875           Si  tau( 875) = (   0.6172837   0.8660254   0.8249389  )
       876           Si  tau( 876) = (   0.6172837   1.2990381   0.8249389  )
       877           Si  tau( 877) = (   0.8672837   0.0000000   0.8249389  )
       878           Si  tau( 878) = (   0.8672837   0.4330127   0.8249389  )
       879           Si  tau( 879) = (   0.8672837   0.8660254   0.8249389  )
       880           Si  tau( 880) = (   0.8672837   1.2990381   0.8249389  )
       881           Si  tau( 881) = (   0.2422837   0.2165063   0.8249389  )
       882           Si  tau( 882) = (   0.2422837   0.6495190   0.8249389  )
       883           Si  tau( 883) = (   0.2422837   1.0825318   0.8249389  )
       884           Si  tau( 884) = (   0.2422837   1.5155445   0.8249389  )
       885           Si  tau( 885) = (   0.4922837   0.2165063   0.8249389  )
       886           Si  tau( 886) = (   0.4922837   0.6495190   0.8249389  )
       887           Si  tau( 887) = (   0.4922837   1.0825318   0.8249389  )
       888           Si  tau( 888) = (   0.4922837   1.5155445   0.8249389  )
       889           Si  tau( 889) = (   0.7422837   0.2165063   0.8249389  )
       890           Si  tau( 890) = (   0.7422837   0.6495190   0.8249389  )
       891           Si  tau( 891) = (   0.7422837   1.0825318   0.8249389  )
       892           Si  tau( 892) = (   0.7422837   1.5155445   0.8249389  )
       893           Si  tau( 893) = (   0.9922837   0.2165063   0.8249389  )
       894           Si  tau( 894) = (   0.9922837   0.6495190   0.8249389  )
       895           Si  tau( 895) = (   0.9922837   1.0825318   0.8249389  )
       896           Si  tau( 896) = (   0.9922837   1.5155445   0.8249389  )
       897           O   tau( 897) = (   0.0696567   0.3743553   0.8567516  )
       898           O   tau( 898) = (   0.0696567   0.8073680   0.8567516  )
       899           O   tau( 899) = (   0.0696567   1.2403807   0.8567516  )
       900           O   tau( 900) = (   0.0696567   1.6733934   0.8567516  )
       901           O   tau( 901) = (   0.3196567   0.3743553   0.8567516  )
       902           O   tau( 902) = (   0.3196567   0.8073680   0.8567516  )
       903           O   tau( 903) = (   0.3196567   1.2403807   0.8567516  )
       904           O   tau( 904) = (   0.3196567   1.6733934   0.8567516  )
       905           O   tau( 905) = (   0.5696567   0.3743553   0.8567516  )
       906           O   tau( 906) = (   0.5696567   0.8073680   0.8567516  )
       907           O   tau( 907) = (   0.5696567   1.2403807   0.8567516  )
       908           O   tau( 908) = (   0.5696567   1.6733934   0.8567516  )
       909           O   tau( 909) = (   0.8196567   0.3743553   0.8567516  )
       910           O   tau( 910) = (   0.8196567   0.8073680   0.8567516  )
       911           O   tau( 911) = (   0.8196567   1.2403807   0.8567516  )
       912           O   tau( 912) = (   0.8196567   1.6733934   0.8567516  )
       913           O   tau( 913) = (   0.1946567   0.1578489   0.8567516  )
       914           O   tau( 914) = (   0.1946567   0.5908616   0.8567516  )
       915           O   tau( 915) = (   0.1946567   1.0238743   0.8567516  )
       916           O   tau( 916) = (   0.1946567   1.4568870   0.8567516  )
       917           O   tau( 917) = (   0.4446567   0.1578489   0.8567516  )
       918           O   tau( 918) = (   0.4446567   0.5908616   0.8567516  )
       919           O   tau( 919) = (   0.4446567   1.0238743   0.8567516  )
       920           O   tau( 920) = (   0.4446567   1.4568870   0.8567516  )
       921           O   tau( 921) = (   0.6946567   0.1578489   0.8567516  )
       922           O   tau( 922) = (   0.6946567   0.5908616   0.8567516  )
       923           O   tau( 923) = (   0.6946567   1.0238743   0.8567516  )
       924           O   tau( 924) = (   0.6946567   1.4568870   0.8567516  )
       925           O   tau( 925) = (   0.9446567   0.1578489   0.8567516  )
       926           O   tau( 926) = (   0.9446567   0.5908616   0.8567516  )
       927           O   tau( 927) = (   0.9446567   1.0238743   0.8567516  )
       928           O   tau( 928) = (   0.9446567   1.4568870   0.8567516  )
       929           O   tau( 929) = (   0.1643728   0.0309958   0.8847862  )
       930           O   tau( 930) = (   0.1643728   0.4640085   0.8847862  )
       931           O   tau( 931) = (   0.1643728   0.8970212   0.8847862  )
       932           O   tau( 932) = (   0.1643728   1.3300339   0.8847862  )
       933           O   tau( 933) = (   0.4143728   0.0309958   0.8847862  )
       934           O   tau( 934) = (   0.4143728   0.4640085   0.8847862  )
       935           O   tau( 935) = (   0.4143728   0.8970212   0.8847862  )
       936           O   tau( 936) = (   0.4143728   1.3300339   0.8847862  )
       937           O   tau( 937) = (   0.6643728   0.0309958   0.8847862  )
       938           O   tau( 938) = (   0.6643728   0.4640085   0.8847862  )
       939           O   tau( 939) = (   0.6643728   0.8970212   0.8847862  )
       940           O   tau( 940) = (   0.6643728   1.3300339   0.8847862  )
       941           O   tau( 941) = (   0.9143728   0.0309958   0.8847862  )
       942           O   tau( 942) = (   0.9143728   0.4640085   0.8847862  )
       943           O   tau( 943) = (   0.9143728   0.8970212   0.8847862  )
       944           O   tau( 944) = (   0.9143728   1.3300339   0.8847862  )
       945           O   tau( 945) = (   0.0393728   0.2475022   0.8847862  )
       946           O   tau( 946) = (   0.0393728   0.6805149   0.8847862  )
       947           O   tau( 947) = (   0.0393728   1.1135275   0.8847862  )
       948           O   tau( 948) = (   0.0393728   1.5465403   0.8847862  )
       949           O   tau( 949) = (   0.2893728   0.2475022   0.8847862  )
       950           O   tau( 950) = (   0.2893728   0.6805149   0.8847862  )
       951           O   tau( 951) = (   0.2893728   1.1135275   0.8847862  )
[...]
      2079           O   tau(2079) = (  0.9446567  0.5911341  0.8894614  )
      2080           O   tau(2080) = (  0.9446567  0.8411341  0.8894614  )
      2081           O   tau(2081) = (  0.1643728  0.0178954  0.9022053  )
      2082           O   tau(2082) = (  0.1643728  0.2678954  0.9022053  )
      2083           O   tau(2083) = (  0.1643728  0.5178954  0.9022053  )
      2084           O   tau(2084) = (  0.1643728  0.7678954  0.9022053  )
      2085           O   tau(2085) = (  0.4143728  0.0178954  0.9022053  )
      2086           O   tau(2086) = (  0.4143728  0.2678954  0.9022053  )
      2087           O   tau(2087) = (  0.4143728  0.5178954  0.9022053  )
      2088           O   tau(2088) = (  0.4143728  0.7678954  0.9022053  )
      2089           O   tau(2089) = (  0.6643728  0.0178954  0.9022053  )
      2090           O   tau(2090) = (  0.6643728  0.2678954  0.9022053  )
      2091           O   tau(2091) = (  0.6643728  0.5178954  0.9022053  )
      2092           O   tau(2092) = (  0.6643728  0.7678954  0.9022053  )
      2093           O   tau(2093) = (  0.9143728  0.0178954  0.9022053  )
      2094           O   tau(2094) = (  0.9143728  0.2678954  0.9022053  )
      2095           O   tau(2095) = (  0.9143728  0.5178954  0.9022053  )
      2096           O   tau(2096) = (  0.9143728  0.7678954  0.9022053  )
      2097           O   tau(2097) = (  0.0393728  0.1428954  0.9022053  )
      2098           O   tau(2098) = (  0.0393728  0.3928954  0.9022053  )
      2099           O   tau(2099) = (  0.0393728  0.6428954  0.9022053  )
      2100           O   tau(2100) = (  0.0393728  0.8928954  0.9022053  )
      2101           O   tau(2101) = (  0.2893728  0.1428954  0.9022053  )
      2102           O   tau(2102) = (  0.2893728  0.3928954  0.9022053  )
      2103           O   tau(2103) = (  0.2893728  0.6428954  0.9022053  )
      2104           O   tau(2104) = (  0.2893728  0.8928954  0.9022053  )
      2105           O   tau(2105) = (  0.5393728  0.1428954  0.9022053  )
      2106           O   tau(2106) = (  0.5393728  0.3928954  0.9022053  )
      2107           O   tau(2107) = (  0.5393728  0.6428954  0.9022053  )
      2108           O   tau(2108) = (  0.5393728  0.8928954  0.9022053  )
      2109           O   tau(2109) = (  0.7893728  0.1428954  0.9022053  )
      2110           O   tau(2110) = (  0.7893728  0.3928954  0.9022053  )
      2111           O   tau(2111) = (  0.7893728  0.6428954  0.9022053  )
      2112           O   tau(2112) = (  0.7893728  0.8928954  0.9022053  )
      2113           Si  tau(2113) = (  0.1913582  0.0586419  0.9166667  )
      2114           Si  tau(2114) = (  0.1913582  0.3086419  0.9166667  )
      2115           Si  tau(2115) = (  0.1913582  0.5586419  0.9166667  )
      2116           Si  tau(2116) = (  0.1913582  0.8086418  0.9166667  )
      2117           Si  tau(2117) = (  0.4413582  0.0586419  0.9166667  )
      2118           Si  tau(2118) = (  0.4413582  0.3086419  0.9166667  )
      2119           Si  tau(2119) = (  0.4413582  0.5586419  0.9166667  )
      2120           Si  tau(2120) = (  0.4413582  0.8086418  0.9166667  )
      2121           Si  tau(2121) = (  0.6913582  0.0586419  0.9166667  )
      2122           Si  tau(2122) = (  0.6913582  0.3086419  0.9166667  )
      2123           Si  tau(2123) = (  0.6913582  0.5586419  0.9166667  )
      2124           Si  tau(2124) = (  0.6913582  0.8086418  0.9166667  )
      2125           Si  tau(2125) = (  0.9413582  0.0586419  0.9166667  )
      2126           Si  tau(2126) = (  0.9413582  0.3086419  0.9166667  )
      2127           Si  tau(2127) = (  0.9413582  0.5586419  0.9166667  )
      2128           Si  tau(2128) = (  0.9413582  0.8086418  0.9166667  )
      2129           Si  tau(2129) = (  0.0663582  0.1836419  0.9166667  )
      2130           Si  tau(2130) = (  0.0663582  0.4336419  0.9166667  )
      2131           Si  tau(2131) = (  0.0663582  0.6836418  0.9166667  )
      2132           Si  tau(2132) = (  0.0663582  0.9336418  0.9166667  )
      2133           Si  tau(2133) = (  0.3163582  0.1836419  0.9166667  )
      2134           Si  tau(2134) = (  0.3163582  0.4336419  0.9166667  )
      2135           Si  tau(2135) = (  0.3163582  0.6836418  0.9166667  )
      2136           Si  tau(2136) = (  0.3163582  0.9336418  0.9166667  )
      2137           Si  tau(2137) = (  0.5663582  0.1836419  0.9166667  )
      2138           Si  tau(2138) = (  0.5663582  0.4336419  0.9166667  )
      2139           Si  tau(2139) = (  0.5663582  0.6836418  0.9166667  )
      2140           Si  tau(2140) = (  0.5663582  0.9336418  0.9166667  )
      2141           Si  tau(2141) = (  0.8163582  0.1836419  0.9166667  )
      2142           Si  tau(2142) = (  0.8163582  0.4336419  0.9166667  )
      2143           Si  tau(2143) = (  0.8163582  0.6836418  0.9166667  )
      2144           Si  tau(2144) = (  0.8163582  0.9336418  0.9166667  )
      2145           O   tau(2145) = (  0.0159705  0.0517613  0.9311280  )
      2146           O   tau(2146) = (  0.0159705  0.3017613  0.9311280  )
      2147           O   tau(2147) = (  0.0159705  0.5517613  0.9311280  )
      2148           O   tau(2148) = (  0.0159705  0.8017613  0.9311280  )
      2149           O   tau(2149) = (  0.2659705  0.0517613  0.9311280  )
      2150           O   tau(2150) = (  0.2659705  0.3017613  0.9311280  )
      2151           O   tau(2151) = (  0.2659705  0.5517613  0.9311280  )
      2152           O   tau(2152) = (  0.2659705  0.8017613  0.9311280  )
      2153           O   tau(2153) = (  0.5159704  0.0517613  0.9311280  )
      2154           O   tau(2154) = (  0.5159704  0.3017613  0.9311280  )
      2155           O   tau(2155) = (  0.5159704  0.5517613  0.9311280  )
      2156           O   tau(2156) = (  0.5159704  0.8017613  0.9311280  )
      2157           O   tau(2157) = (  0.7659704  0.0517613  0.9311280  )
      2158           O   tau(2158) = (  0.7659704  0.3017613  0.9311280  )
      2159           O   tau(2159) = (  0.7659704  0.5517613  0.9311280  )
      2160           O   tau(2160) = (  0.7659704  0.8017613  0.9311280  )
      2161           O   tau(2161) = (  0.1409704  0.1767613  0.9311280  )
      2162           O   tau(2162) = (  0.1409704  0.4267613  0.9311280  )
      2163           O   tau(2163) = (  0.1409704  0.6767613  0.9311280  )
      2164           O   tau(2164) = (  0.1409704  0.9267613  0.9311280  )
      2165           O   tau(2165) = (  0.3909705  0.1767613  0.9311280  )
      2166           O   tau(2166) = (  0.3909705  0.4267613  0.9311280  )
      2167           O   tau(2167) = (  0.3909705  0.6767613  0.9311280  )
      2168           O   tau(2168) = (  0.3909705  0.9267613  0.9311280  )
      2169           O   tau(2169) = (  0.6409704  0.1767613  0.9311280  )
      2170           O   tau(2170) = (  0.6409704  0.4267613  0.9311280  )
      2171           O   tau(2171) = (  0.6409704  0.6767613  0.9311280  )
      2172           O   tau(2172) = (  0.6409704  0.9267613  0.9311280  )
      2173           O   tau(2173) = (  0.8909704  0.1767613  0.9311280  )
      2174           O   tau(2174) = (  0.8909704  0.4267613  0.9311280  )
      2175           O   tau(2175) = (  0.8909704  0.6767613  0.9311280  )
      2176           O   tau(2176) = (  0.8909704  0.9267613  0.9311280  )
      2177           O   tau(2177) = (  0.0159705  0.1982387  0.9438720  )
      2178           O   tau(2178) = (  0.0159705  0.4482387  0.9438720  )
      2179           O   tau(2179) = (  0.0159705  0.6982387  0.9438720  )
      2180           O   tau(2180) = (  0.0159705  0.9482387  0.9438720  )
      2181           O   tau(2181) = (  0.2659705  0.1982387  0.9438720  )
      2182           O   tau(2182) = (  0.2659705  0.4482387  0.9438720  )
      2183           O   tau(2183) = (  0.2659705  0.6982387  0.9438720  )
      2184           O   tau(2184) = (  0.2659705  0.9482387  0.9438720  )
      2185           O   tau(2185) = (  0.5159704  0.1982387  0.9438720  )
      2186           O   tau(2186) = (  0.5159704  0.4482387  0.9438720  )
      2187           O   tau(2187) = (  0.5159704  0.6982387  0.9438720  )
      2188           O   tau(2188) = (  0.5159704  0.9482387  0.9438720  )
      2189           O   tau(2189) = (  0.7659704  0.1982387  0.9438720  )
      2190           O   tau(2190) = (  0.7659704  0.4482387  0.9438720  )
      2191           O   tau(2191) = (  0.7659704  0.6982387  0.9438720  )
      2192           O   tau(2192) = (  0.7659704  0.9482387  0.9438720  )
      2193           O   tau(2193) = (  0.1409704  0.0732387  0.9438720  )
      2194           O   tau(2194) = (  0.1409704  0.3232387  0.9438720  )
      2195           O   tau(2195) = (  0.1409704  0.5732387  0.9438720  )
      2196           O   tau(2196) = (  0.1409704  0.8232387  0.9438720  )
      2197           O   tau(2197) = (  0.3909705  0.0732387  0.9438720  )
      2198           O   tau(2198) = (  0.3909705  0.3232387  0.9438720  )
      2199           O   tau(2199) = (  0.3909705  0.5732387  0.9438720  )
      2200           O   tau(2200) = (  0.3909705  0.8232387  0.9438720  )
      2201           O   tau(2201) = (  0.6409704  0.0732387  0.9438720  )
      2202           O   tau(2202) = (  0.6409704  0.3232387  0.9438720  )
      2203           O   tau(2203) = (  0.6409704  0.5732387  0.9438720  )
      2204           O   tau(2204) = (  0.6409704  0.8232387  0.9438720  )
      2205           O   tau(2205) = (  0.8909704  0.0732387  0.9438720  )
      2206           O   tau(2206) = (  0.8909704  0.3232387  0.9438720  )
      2207           O   tau(2207) = (  0.8909704  0.5732387  0.9438720  )
      2208           O   tau(2208) = (  0.8909704  0.8232387  0.9438720  )
      2209           Si  tau(2209) = (  0.1913582  0.1913582  0.9583333  )
      2210           Si  tau(2210) = (  0.1913582  0.4413581  0.9583333  )
      2211           Si  tau(2211) = (  0.1913582  0.6913581  0.9583333  )
      2212           Si  tau(2212) = (  0.1913582  0.9413581  0.9583333  )
      2213           Si  tau(2213) = (  0.4413582  0.1913582  0.9583333  )
      2214           Si  tau(2214) = (  0.4413582  0.4413581  0.9583333  )
      2215           Si  tau(2215) = (  0.4413582  0.6913581  0.9583333  )
      2216           Si  tau(2216) = (  0.4413582  0.9413581  0.9583333  )
      2217           Si  tau(2217) = (  0.6913582  0.1913582  0.9583333  )
      2218           Si  tau(2218) = (  0.6913582  0.4413581  0.9583333  )
      2219           Si  tau(2219) = (  0.6913582  0.6913581  0.9583333  )
      2220           Si  tau(2220) = (  0.6913582  0.9413581  0.9583333  )
      2221           Si  tau(2221) = (  0.9413582  0.1913582  0.9583333  )
      2222           Si  tau(2222) = (  0.9413582  0.4413581  0.9583333  )
      2223           Si  tau(2223) = (  0.9413582  0.6913581  0.9583333  )
      2224           Si  tau(2224) = (  0.9413582  0.9413581  0.9583333  )
      2225           Si  tau(2225) = (  0.0663582  0.0663582  0.9583333  )
      2226           Si  tau(2226) = (  0.0663582  0.3163582  0.9583333  )
      2227           Si  tau(2227) = (  0.0663582  0.5663581  0.9583333  )
      2228           Si  tau(2228) = (  0.0663582  0.8163581  0.9583333  )
      2229           Si  tau(2229) = (  0.3163582  0.0663582  0.9583333  )
      2230           Si  tau(2230) = (  0.3163582  0.3163582  0.9583333  )
      2231           Si  tau(2231) = (  0.3163582  0.5663581  0.9583333  )
      2232           Si  tau(2232) = (  0.3163582  0.8163581  0.9583333  )
      2233           Si  tau(2233) = (  0.5663582  0.0663582  0.9583333  )
      2234           Si  tau(2234) = (  0.5663582  0.3163582  0.9583333  )
      2235           Si  tau(2235) = (  0.5663582  0.5663581  0.9583333  )
      2236           Si  tau(2236) = (  0.5663582  0.8163581  0.9583333  )
      2237           Si  tau(2237) = (  0.8163582  0.0663582  0.9583333  )
      2238           Si  tau(2238) = (  0.8163582  0.3163582  0.9583333  )
      2239           Si  tau(2239) = (  0.8163582  0.5663581  0.9583333  )
      2240           Si  tau(2240) = (  0.8163582  0.8163581  0.9583333  )
      2241           O   tau(2241) = (  0.1643728  0.2321046  0.9727947  )
      2242           O   tau(2242) = (  0.1643728  0.4821046  0.9727947  )
      2243           O   tau(2243) = (  0.1643728  0.7321046  0.9727947  )
      2244           O   tau(2244) = (  0.1643728  0.9821046  0.9727947  )
      2245           O   tau(2245) = (  0.4143728  0.2321046  0.9727947  )
      2246           O   tau(2246) = (  0.4143728  0.4821046  0.9727947  )
      2247           O   tau(2247) = (  0.4143728  0.7321046  0.9727947  )
      2248           O   tau(2248) = (  0.4143728  0.9821046  0.9727947  )
      2249           O   tau(2249) = (  0.6643728  0.2321046  0.9727947  )
      2250           O   tau(2250) = (  0.6643728  0.4821046  0.9727947  )
      2251           O   tau(2251) = (  0.6643728  0.7321046  0.9727947  )
      2252           O   tau(2252) = (  0.6643728  0.9821046  0.9727947  )
      2253           O   tau(2253) = (  0.9143728  0.2321046  0.9727947  )
      2254           O   tau(2254) = (  0.9143728  0.4821046  0.9727947  )
      2255           O   tau(2255) = (  0.9143728  0.7321046  0.9727947  )
      2256           O   tau(2256) = (  0.9143728  0.9821046  0.9727947  )
      2257           O   tau(2257) = (  0.0393728  0.1071046  0.9727947  )
      2258           O   tau(2258) = (  0.0393728  0.3571046  0.9727947  )
      2259           O   tau(2259) = (  0.0393728  0.6071046  0.9727947  )
      2260           O   tau(2260) = (  0.0393728  0.8571046  0.9727947  )
      2261           O   tau(2261) = (  0.2893728  0.1071046  0.9727947  )
      2262           O   tau(2262) = (  0.2893728  0.3571046  0.9727947  )
      2263           O   tau(2263) = (  0.2893728  0.6071046  0.9727947  )
      2264           O   tau(2264) = (  0.2893728  0.8571046  0.9727947  )
      2265           O   tau(2265) = (  0.5393728  0.1071046  0.9727947  )
      2266           O   tau(2266) = (  0.5393728  0.3571046  0.9727947  )
      2267           O   tau(2267) = (  0.5393728  0.6071046  0.9727947  )
      2268           O   tau(2268) = (  0.5393728  0.8571046  0.9727947  )
      2269           O   tau(2269) = (  0.7893728  0.1071046  0.9727947  )
      2270           O   tau(2270) = (  0.7893728  0.3571046  0.9727947  )
      2271           O   tau(2271) = (  0.7893728  0.6071046  0.9727947  )
      2272           O   tau(2272) = (  0.7893728  0.8571046  0.9727947  )
      2273           O   tau(2273) = (  0.0696567  0.0338659  0.9855386  )
      2274           O   tau(2274) = (  0.0696567  0.2838659  0.9855386  )
      2275           O   tau(2275) = (  0.0696567  0.5338659  0.9855386  )
      2276           O   tau(2276) = (  0.0696567  0.7838659  0.9855386  )
      2277           O   tau(2277) = (  0.3196567  0.0338659  0.9855386  )
      2278           O   tau(2278) = (  0.3196567  0.2838659  0.9855386  )
      2279           O   tau(2279) = (  0.3196567  0.5338659  0.9855386  )
      2280           O   tau(2280) = (  0.3196567  0.7838659  0.9855386  )
      2281           O   tau(2281) = (  0.5696567  0.0338659  0.9855386  )
      2282           O   tau(2282) = (  0.5696567  0.2838659  0.9855386  )
      2283           O   tau(2283) = (  0.5696567  0.5338659  0.9855386  )
      2284           O   tau(2284) = (  0.5696567  0.7838659  0.9855386  )
      2285           O   tau(2285) = (  0.8196567  0.0338659  0.9855386  )
      2286           O   tau(2286) = (  0.8196567  0.2838659  0.9855386  )
      2287           O   tau(2287) = (  0.8196567  0.5338659  0.9855386  )
      2288           O   tau(2288) = (  0.8196567  0.7838659  0.9855386  )
      2289           O   tau(2289) = (  0.1946567  0.1588659  0.9855386  )
      2290           O   tau(2290) = (  0.1946567  0.4088659  0.9855386  )
      2291           O   tau(2291) = (  0.1946567  0.6588659  0.9855386  )
      2292           O   tau(2292) = (  0.1946567  0.9088659  0.9855386  )
      2293           O   tau(2293) = (  0.4446567  0.1588659  0.9855386  )
      2294           O   tau(2294) = (  0.4446567  0.4088659  0.9855386  )
      2295           O   tau(2295) = (  0.4446567  0.6588659  0.9855386  )
      2296           O   tau(2296) = (  0.4446567  0.9088659  0.9855386  )
      2297           O   tau(2297) = (  0.6946567  0.1588659  0.9855386  )
      2298           O   tau(2298) = (  0.6946567  0.4088659  0.9855386  )
      2299           O   tau(2299) = (  0.6946567  0.6588659  0.9855386  )
      2300           O   tau(2300) = (  0.6946567  0.9088659  0.9855386  )
      2301           O   tau(2301) = (  0.9446567  0.1588659  0.9855386  )
      2302           O   tau(2302) = (  0.9446567  0.4088659  0.9855386  )
      2303           O   tau(2303) = (  0.9446567  0.6588659  0.9855386  )
      2304           O   tau(2304) = (  0.9446567  0.9088659  0.9855386  )

     number of k points=     1
                       cart. coord. in units 2pi/alat
        k(    1) = (  -0.5000000  -0.2886751  -0.2272895), wk =   2.0000000

                       cryst. coord.
        k(    1) = (  -0.5000000  -0.5000000  -0.5000000), wk =   2.0000000

     Dense  grid: 18875837 G-vectors     FFT dimensions: ( 216, 375, 480)

     Smooth grid:  6674391 G-vectors     FFT dimensions: ( 150, 270, 360)

     Dynamical RAM for                 wfc:     101.81 MB

     Dynamical RAM for     wfc (w. buffer):     101.81 MB

     Dynamical RAM for           str. fact:       0.75 MB

     Dynamical RAM for           local pot:       0.00 MB

     Dynamical RAM for          nlocal pot:     305.44 MB

     Dynamical RAM for                qrad:       0.82 MB

     Dynamical RAM for          rho,v,vnew:       2.98 MB

     Dynamical RAM for               rhoin:       0.99 MB

     Dynamical RAM for            rho*nmix:       6.00 MB

     Dynamical RAM for           G-vectors:       1.47 MB

     Dynamical RAM for          h,s,v(r/c):       9.48 MB

     Dynamical RAM for          <psi|beta>:    1728.00 MB

     Dynamical RAM for                 psi:     203.62 MB

     Dynamical RAM for                hpsi:     203.62 MB

     Dynamical RAM for                spsi:     203.62 MB

     Dynamical RAM for      wfcinit/wfcrot:    2249.51 MB

     Dynamical RAM for           addusdens:     592.25 MB

     Dynamical RAM for          addusforce:    1745.18 MB

     Estimated static dynamical RAM per process >     424.50 MB

     Estimated max dynamical RAM per process >       2.71 GB

     Estimated total dynamical RAM >    2079.64 GB

     Check: negative core charge=   -0.000035

     Initial potential from superposition of free atoms

     starting charge **********, renormalised to **********
     Starting wfcs are 9216 randomized atomic wfcs

     total cpu time spent up to now is      143.3 secs

     Self-consistent Calculation

     iteration #  1     ecut=    40.00 Ry     beta= 0.70
     Davidson diagonalization with overlap
     ethr =  1.00E-02,  avg # of iterations =  3.0

     total cpu time spent up to now is      551.3 secs

     total energy              =  -60253.62062901 Ry
     estimated scf accuracy    <     551.01498367 Ry

     iteration #  2     ecut=    40.00 Ry     beta= 0.70
     Davidson diagonalization with overlap
     ethr =  4.48E-03,  avg # of iterations =  3.0

     total cpu time spent up to now is      940.3 secs

     total energy              =  -60453.44726909 Ry
     estimated scf accuracy    <     249.25914474 Ry

     iteration #  3     ecut=    40.00 Ry     beta= 0.70
     Davidson diagonalization with overlap
     ethr =  2.03E-03,  avg # of iterations =  2.0

     total cpu time spent up to now is     1263.1 secs

     total energy              =  -60479.06624352 Ry
     estimated scf accuracy    <      10.37167143 Ry

     iteration #  4     ecut=    40.00 Ry     beta= 0.70
     Davidson diagonalization with overlap
