
     Program PWSCF v.6.6 starts on  8Sep2021 at  2:40:44 

     This program is part of the open-source Quantum ESPRESSO suite
     for quantum simulation of materials; please cite
         "P. Giannozzi et al., J. Phys.:Condens. Matter 21 395502 (2009);
         "P. Giannozzi et al., J. Phys.:Condens. Matter 29 465901 (2017);
          URL http://www.quantum-espresso.org", 
     in publications or presentations arising from this work. More details at
     http://www.quantum-espresso.org/quote

     Parallel version (MPI & OpenMP), running on     384 processor cores
     Number of MPI processes:                48
     Threads/MPI process:                     8

     MPI processes distributed on     8 nodes
     K-points division:     npool     =       4
     R & G space division:  proc/nbgrp/npool/nimage =      12
     Fft bands division:     nmany     =       1
     Reading input from ../inputs/input_ausurf_72

     Current dimensions of program PWSCF are:
     Max number of different atomic species (ntypx) = 10
     Max number of k-points (npk) =  40000
     Max angular momentum in pseudopotentials (lmaxx) =  3

     Subspace diagonalization in iterative solution of the eigenvalue problem:
     one sub-group per band group will be used
     ELPA distributed-memory algorithm (size of sub-group:  3*  3 procs)

     Found symmetry operation: I + ( -0.5000  0.0000  0.0000)
     This is a supercell, fractional translations are disabled
 
     Parallelization info
     --------------------
     sticks:   dense  smooth     PW     G-vecs:    dense   smooth      PW
     Min         500     227     62               118770    36705    5252
     Max         501     228     64               118781    36726    5259
     Sum        6001    2733    755              1425285   440649   63085
 

     Title: 
      Ausurf                                                                    


     bravais-lattice index     =            8
     lattice parameter (alat)  =      11.1494  a.u.
     unit-cell volume          =   12888.9871 (a.u.)^3
     number of atoms/cell      =           72
     number of atomic types    =            1
     number of electrons       =       792.00
     number of Kohn-Sham states=          475
     kinetic-energy cutoff     =      40.0000  Ry
     charge density cutoff     =     350.0000  Ry
     convergence threshold     =      1.0E-06
     mixing beta               =       0.7000
     number of iterations used =            8  TF        mixing
     Exchange-correlation=  SLA  PW   PBE  PBE
                           (   1   4   3   4   0   0   0)

     celldm(1)=  11.149384  celldm(2)=   1.732051  celldm(3)=   5.369150
     celldm(4)=   0.000000  celldm(5)=   0.000000  celldm(6)=   0.000000

     crystal axes: (cart. coord. in units of alat)
               a(1) = (   1.000000   0.000000   0.000000 )  
               a(2) = (   0.000000   1.732051   0.000000 )  
               a(3) = (   0.000000   0.000000   5.369150 )  

     reciprocal axes: (cart. coord. in units 2 pi/alat)
               b(1) = (  1.000000  0.000000  0.000000 )  
               b(2) = (  0.000000  0.577350  0.000000 )  
               b(3) = (  0.000000  0.000000  0.186249 )  


     PseudoPot. # 1 for Au read from file:
     /marconi/home/userexternal/czeni000/dft_src/pseudo/Au.pbe-nd-van.UPF
     MD5 check sum: deb5c07af10777505a79e28f5b4b4115
     Pseudo is Ultrasoft + core correction, Zval = 11.0
     Generated by new atomic code, or converted to UPF format
     Using radial grid of  985 points,  3 beta functions with: 
                l(1) =   1
                l(2) =   2
                l(3) =   2
     Q(r) pseudized with  8 coefficients,  rinner =    1.100   1.100   1.100
                                                       1.100   1.100

     atomic species   valence    mass     pseudopotential
        Au            11.00   196.96000     Au( 1.00)

      2 Sym. Ops. (no inversion) found



   Cartesian axes

     site n.     atom                  positions (alat units)
         1           Au  tau(   1) = (   0.0000000   0.0000000   0.0000000  )
         2           Au  tau(   2) = (   0.5000000   0.0000000   0.0000000  )
         3           Au  tau(   3) = (   0.0000000   0.8660254   0.0000000  )
         4           Au  tau(   4) = (   0.5000000   0.8660254   0.0000000  )
         5           Au  tau(   5) = (   0.2500000   0.1443376   0.4082483  )
         6           Au  tau(   6) = (   0.7500000   0.1443376   0.4082483  )
         7           Au  tau(   7) = (   0.2500000   1.0103631   0.4082483  )
         8           Au  tau(   8) = (   0.7500000   1.0103631   0.4082483  )
         9           Au  tau(   9) = (   0.5000000   0.5773503   0.4082483  )
        10           Au  tau(  10) = (   0.5000000   1.4433756   0.4082483  )
        11           Au  tau(  11) = (   1.0000000   0.5773503   0.4082483  )
        12           Au  tau(  12) = (   1.0000000   1.4433756   0.4082483  )
        13           Au  tau(  13) = (   0.5000000   0.2886751   0.8164966  )
        14           Au  tau(  14) = (   1.0000000   0.2886751   0.8164966  )
        15           Au  tau(  15) = (   0.2500000   0.7216878   0.8164966  )
        16           Au  tau(  16) = (   0.7500000   0.7216878   0.8164966  )
        17           Au  tau(  17) = (   0.5000000   1.1547005   0.8164966  )
        18           Au  tau(  18) = (   1.0000000   1.1547005   0.8164966  )
        19           Au  tau(  19) = (   0.2500000   1.5877132   0.8164966  )
        20           Au  tau(  20) = (   0.7500000   1.5877132   0.8164966  )
        21           Au  tau(  21) = (   0.0000000   0.0000000   1.2247449  )
        22           Au  tau(  22) = (   0.5000000   0.0000000   1.2247449  )
        23           Au  tau(  23) = (   0.2500000   0.4330127   1.2247449  )
        24           Au  tau(  24) = (   0.5000000   0.8660254   1.2247449  )
        25           Au  tau(  25) = (   0.2500000   1.2990381   1.2247449  )
        26           Au  tau(  26) = (   0.7500000   0.4330127   1.2247449  )
        27           Au  tau(  27) = (   0.7500000   1.2990381   1.2247449  )
        28           Au  tau(  28) = (   0.0000000   0.8660254   1.2247449  )
        29           Au  tau(  29) = (   0.2500000   1.0103631   1.6329932  )
        30           Au  tau(  30) = (   1.0000000   0.5773503   1.6329932  )
        31           Au  tau(  31) = (   0.2500000   0.1443376   1.6329932  )
        32           Au  tau(  32) = (   0.7500000   0.1443376   1.6329932  )
        33           Au  tau(  33) = (   0.7500000   1.0103631   1.6329932  )
        34           Au  tau(  34) = (   0.5000000   0.5773503   1.6329932  )
        35           Au  tau(  35) = (   0.5000000   1.4433756   1.6329932  )
        36           Au  tau(  36) = (   1.0000000   1.4433756   1.6329932  )
        37           Au  tau(  37) = (   0.5000000   0.2886751   2.0412415  )
        38           Au  tau(  38) = (   1.0000000   0.2886751   2.0412415  )
        39           Au  tau(  39) = (   0.2500000   0.7216878   2.0412415  )
        40           Au  tau(  40) = (   0.7500000   0.7216878   2.0412415  )
        41           Au  tau(  41) = (   0.7500000   1.5877132   2.0412415  )
        42           Au  tau(  42) = (   0.5000000   1.1547005   2.0412415  )
        43           Au  tau(  43) = (   1.0000000   1.1547005   2.0412415  )
        44           Au  tau(  44) = (   0.2500000   1.5877132   2.0412415  )
        45           Au  tau(  45) = (   0.0000000   0.0000000   2.4494897  )
        46           Au  tau(  46) = (   0.0000000   0.8660254   2.4494897  )
        47           Au  tau(  47) = (   0.5000000   0.0000000   2.4494897  )
        48           Au  tau(  48) = (   0.5000000   0.8660254   2.4494897  )
        49           Au  tau(  49) = (   0.2500000   0.4330127   2.4494897  )
        50           Au  tau(  50) = (   0.7500000   0.4330127   2.4494897  )
        51           Au  tau(  51) = (   0.2500000   1.2990381   2.4494897  )
        52           Au  tau(  52) = (   0.7500000   1.2990381   2.4494897  )
        53           Au  tau(  53) = (   1.0000000   1.4433756   2.8577380  )
        54           Au  tau(  54) = (   0.2500000   0.1443376   2.8577380  )
        55           Au  tau(  55) = (   0.2500000   1.0103631   2.8577380  )
        56           Au  tau(  56) = (   0.7500000   0.1443376   2.8577380  )
        57           Au  tau(  57) = (   0.7500000   1.0103631   2.8577380  )
        58           Au  tau(  58) = (   0.5000000   0.5773503   2.8577380  )
        59           Au  tau(  59) = (   0.5000000   1.4433756   2.8577380  )
        60           Au  tau(  60) = (   1.0000000   0.5773503   2.8577380  )
        61           Au  tau(  61) = (   0.7500000   1.5877132   3.2659863  )
        62           Au  tau(  62) = (   0.5000000   0.2886751   3.2659863  )
        63           Au  tau(  63) = (   0.5000000   1.1547005   3.2659863  )
        64           Au  tau(  64) = (   1.0000000   0.2886751   3.2659863  )
        65           Au  tau(  65) = (   1.0000000   1.1547005   3.2659863  )
        66           Au  tau(  66) = (   0.2500000   0.7216878   3.2659863  )
        67           Au  tau(  67) = (   0.2500000   1.5877132   3.2659863  )
        68           Au  tau(  68) = (   0.7500000   0.7216878   3.2659863  )
        69           Au  tau(  69) = (   0.2500000   0.4330127   3.6742346  )
        70           Au  tau(  70) = (   0.2500000   1.2990381   3.6742346  )
        71           Au  tau(  71) = (   0.7500000   0.4330127   3.6742346  )
        72           Au  tau(  72) = (   0.7500000   1.2990381   3.6742346  )

     number of k points=    18  Marzari-Vanderbilt smearing, width (Ry)=  0.0500
                       cart. coord. in units 2pi/alat
        k(    1) = (   0.0416667   0.0481125   0.0000000), wk =   0.1111111
        k(    2) = (   0.0416667   0.1443376   0.0000000), wk =   0.1111111
        k(    3) = (   0.0416667   0.2405626   0.0000000), wk =   0.1111111
        k(    4) = (   0.1250000   0.0481125   0.0000000), wk =   0.1111111
        k(    5) = (   0.1250000   0.1443376   0.0000000), wk =   0.1111111
        k(    6) = (   0.1250000   0.2405626   0.0000000), wk =   0.1111111
        k(    7) = (   0.2083333   0.0481125   0.0000000), wk =   0.1111111
        k(    8) = (   0.2083333   0.1443376   0.0000000), wk =   0.1111111
        k(    9) = (   0.2083333   0.2405626   0.0000000), wk =   0.1111111
        k(   10) = (   0.2916667   0.0481125   0.0000000), wk =   0.1111111
        k(   11) = (   0.2916667   0.1443376   0.0000000), wk =   0.1111111
        k(   12) = (   0.2916667   0.2405626   0.0000000), wk =   0.1111111
        k(   13) = (   0.3750000   0.0481125   0.0000000), wk =   0.1111111
        k(   14) = (   0.3750000   0.1443376   0.0000000), wk =   0.1111111
        k(   15) = (   0.3750000   0.2405626   0.0000000), wk =   0.1111111
        k(   16) = (   0.4583333   0.0481125   0.0000000), wk =   0.1111111
        k(   17) = (   0.4583333   0.1443376   0.0000000), wk =   0.1111111
        k(   18) = (   0.4583333   0.2405626   0.0000000), wk =   0.1111111

     Dense  grid:  1425285 G-vectors     FFT dimensions: (  72, 120, 360)

     Smooth grid:   440649 G-vectors     FFT dimensions: (  45,  80, 243)

     Estimated max dynamical RAM per process >     542.91 MB

     Estimated total dynamical RAM >      25.45 GB

     Initial potential from superposition of free atoms

     starting charge  791.16394, renormalised to  792.00000

     negative rho (up, down):  1.916E+00 0.000E+00
     Starting wfcs are  648 randomized atomic wfcs

     total cpu time spent up to now is        6.9 secs

     Self-consistent Calculation

     iteration #  1     ecut=    40.00 Ry     beta= 0.70
     Davidson diagonalization with overlap
     ethr =  1.00E-02,  avg # of iterations =  2.5

     Threshold (ethr) on eigenvalues was too large:
     Diagonalizing with lowered threshold

     Davidson diagonalization with overlap
     ethr =  3.34E-04,  avg # of iterations =  2.8

     negative rho (up, down):  1.820E+00 0.000E+00

     total cpu time spent up to now is       33.7 secs

     total energy              =   -7346.27280284 Ry
     estimated scf accuracy    <       3.14720934 Ry

     iteration #  2     ecut=    40.00 Ry     beta= 0.70
     Davidson diagonalization with overlap
     ethr =  3.97E-04,  avg # of iterations =  1.0

     negative rho (up, down):  1.926E+00 0.000E+00

     total cpu time spent up to now is       43.9 secs

     total energy              =   -7346.41231876 Ry
     estimated scf accuracy    <       1.40725662 Ry

     iteration #  3     ecut=    40.00 Ry     beta= 0.70
     Davidson diagonalization with overlap
     ethr =  1.78E-04,  avg # of iterations =  2.9

     negative rho (up, down):  2.029E+00 0.000E+00

     total cpu time spent up to now is       56.6 secs

     total energy              =   -7346.40390715 Ry
     estimated scf accuracy    <       0.82265289 Ry

     iteration #  4     ecut=    40.00 Ry     beta= 0.70
     Davidson diagonalization with overlap
     ethr =  1.04E-04,  avg # of iterations =  6.6

     negative rho (up, down):  2.026E+00 0.000E+00

     total cpu time spent up to now is       72.6 secs

     total energy              =   -7346.39076180 Ry
     estimated scf accuracy    <       0.40469998 Ry

     iteration #  5     ecut=    40.00 Ry     beta= 0.70
     Davidson diagonalization with overlap
     ethr =  5.11E-05,  avg # of iterations = 11.2

     negative rho (up, down):  1.975E+00 0.000E+00

     total cpu time spent up to now is       91.5 secs

     total energy              =   -7346.38493622 Ry
     estimated scf accuracy    <       0.24802824 Ry

     iteration #  6     ecut=    40.00 Ry     beta= 0.70
     Davidson diagonalization with overlap
     ethr =  3.13E-05,  avg # of iterations =  8.4

     negative rho (up, down):  1.978E+00 0.000E+00

     total cpu time spent up to now is      108.5 secs

     total energy              =   -7346.37792224 Ry
     estimated scf accuracy    <       0.23647159 Ry

     iteration #  7     ecut=    40.00 Ry     beta= 0.70
     Davidson diagonalization with overlap
     ethr =  2.99E-05,  avg # of iterations =  5.3

     negative rho (up, down):  1.986E+00 0.000E+00

     total cpu time spent up to now is      124.7 secs

     total energy              =   -7346.36999528 Ry
     estimated scf accuracy    <       0.24133056 Ry

     iteration #  8     ecut=    40.00 Ry     beta= 0.70
     Davidson diagonalization with overlap
     ethr =  2.99E-05,  avg # of iterations =  3.3

     negative rho (up, down):  2.024E+00 0.000E+00

     total cpu time spent up to now is      138.1 secs

     total energy              =   -7346.35167147 Ry
     estimated scf accuracy    <       0.16894975 Ry

     iteration #  9     ecut=    40.00 Ry     beta= 0.70
     Davidson diagonalization with overlap
     ethr =  2.13E-05,  avg # of iterations = 12.3

     negative rho (up, down):  2.013E+00 0.000E+00

     total cpu time spent up to now is      162.2 secs

     total energy              =   -7346.37475366 Ry
     estimated scf accuracy    <       0.25469343 Ry

     iteration # 10     ecut=    40.00 Ry     beta= 0.70
     Davidson diagonalization with overlap
     ethr =  2.13E-05,  avg # of iterations =  1.0

     negative rho (up, down):  2.030E+00 0.000E+00

     total cpu time spent up to now is      172.4 secs

     total energy              =   -7346.36198162 Ry
     estimated scf accuracy    <       0.16268327 Ry

     iteration # 11     ecut=    40.00 Ry     beta= 0.70
     Davidson diagonalization with overlap
     ethr =  2.05E-05,  avg # of iterations =  1.0

     negative rho (up, down):  2.040E+00 0.000E+00

     total cpu time spent up to now is      182.5 secs

     total energy              =   -7346.37478812 Ry
     estimated scf accuracy    <       0.07125363 Ry

     iteration # 12     ecut=    40.00 Ry     beta= 0.70
     Davidson diagonalization with overlap
     ethr =  9.00E-06,  avg # of iterations =  2.0

     negative rho (up, down):  2.072E+00 0.000E+00

     total cpu time spent up to now is      194.3 secs

     total energy              =   -7346.35262371 Ry
     estimated scf accuracy    <       0.20669794 Ry

     iteration # 13     ecut=    40.00 Ry     beta= 0.70
     Davidson diagonalization with overlap
     ethr =  9.00E-06,  avg # of iterations = 10.3

     negative rho (up, down):  2.027E+00 0.000E+00

     total cpu time spent up to now is      213.4 secs

     total energy              =   -7346.35153334 Ry
     estimated scf accuracy    <       0.02154251 Ry

     iteration # 14     ecut=    40.00 Ry     beta= 0.70
     Davidson diagonalization with overlap
     ethr =  2.72E-06,  avg # of iterations = 11.4

     negative rho (up, down):  2.013E+00 0.000E+00

     total cpu time spent up to now is      244.7 secs

     total energy              =   -7346.35946015 Ry
     estimated scf accuracy    <       0.05218211 Ry

     iteration # 15     ecut=    40.00 Ry     beta= 0.70
     Davidson diagonalization with overlap
     ethr =  2.72E-06,  avg # of iterations =  2.1

     negative rho (up, down):  1.994E+00 0.000E+00

     total cpu time spent up to now is      256.7 secs

     total energy              =   -7346.35455738 Ry
     estimated scf accuracy    <       0.02830076 Ry

     iteration # 16     ecut=    40.00 Ry     beta= 0.70
     Davidson diagonalization with overlap
     ethr =  2.72E-06,  avg # of iterations =  6.9

     negative rho (up, down):  1.973E+00 0.000E+00

     total cpu time spent up to now is      275.1 secs

     total energy              =   -7346.35667650 Ry
     estimated scf accuracy    <       0.00045375 Ry

     iteration # 17     ecut=    40.00 Ry     beta= 0.70
     Davidson diagonalization with overlap
     ethr =  5.73E-08,  avg # of iterations =  9.1

     negative rho (up, down):  1.960E+00 0.000E+00

     total cpu time spent up to now is      297.5 secs

     total energy              =   -7346.35652558 Ry
     estimated scf accuracy    <       0.00061995 Ry

     iteration # 18     ecut=    40.00 Ry     beta= 0.70
     Davidson diagonalization with overlap
     ethr =  5.73E-08,  avg # of iterations = 12.1

     negative rho (up, down):  1.958E+00 0.000E+00

     total cpu time spent up to now is      318.5 secs

     total energy              =   -7346.35662896 Ry
     estimated scf accuracy    <       0.00007314 Ry

     iteration # 19     ecut=    40.00 Ry     beta= 0.70
     Davidson diagonalization with overlap
     ethr =  9.24E-09,  avg # of iterations =  8.0

     negative rho (up, down):  1.957E+00 0.000E+00

     total cpu time spent up to now is      338.7 secs

     total energy              =   -7346.35668138 Ry
     estimated scf accuracy    <       0.00006180 Ry

     iteration # 20     ecut=    40.00 Ry     beta= 0.70
     Davidson diagonalization with overlap
     ethr =  7.80E-09,  avg # of iterations =  7.1

     negative rho (up, down):  1.957E+00 0.000E+00

     total cpu time spent up to now is      357.1 secs

     total energy              =   -7346.35669427 Ry
     estimated scf accuracy    <       0.00003631 Ry

     iteration # 21     ecut=    40.00 Ry     beta= 0.70
     Davidson diagonalization with overlap
     ethr =  4.58E-09,  avg # of iterations =  2.1

     negative rho (up, down):  1.957E+00 0.000E+00

     total cpu time spent up to now is      369.0 secs

     End of self-consistent calculation

          k = 0.0417 0.0481 0.0000 ( 55126 PWs)   bands (ev):

    -0.8129  -0.4712   0.0255   0.5492   0.6015   0.8363   0.9651   1.1252
     1.2160   1.2464   1.4435   1.5574   1.5650   1.5684   1.6036   1.6143
     1.6195   1.7229   1.8477   1.8506   1.8522   1.8547   1.8642   1.8684
     1.9219   2.0303   2.0337   2.0407   2.1221   2.1228   2.1255   2.1517
     2.1521   2.1636   2.1715   2.2258   2.2293   2.2383   2.2442   2.2807
     2.3148   2.3181   2.3230   2.3338   2.3503   2.3811   2.3916   2.4116
     2.4167   2.4302   2.4408   2.4760   2.4838   2.4888   2.4954   2.5152
     2.5246   2.5464   2.5802   2.6023   2.6235   2.6416   2.6673   2.6689
     2.6847   2.7238   2.7341   2.7591   2.7690   2.7907   2.8248   2.8574
     2.9327   2.9404   2.9613   2.9795   3.0562   3.0695   3.0815   3.0835
     3.1172   3.1480   3.1696   3.1762   3.1947   3.2140   3.2337   3.2614
     3.2910   3.3218   3.3245   3.3319   3.3439   3.3608   3.3695   3.3759
     3.4220   3.4496   3.4594   3.4758   3.4825   3.5091   3.5121   3.5481
     3.5629   3.5671   3.5869   3.6019   3.6076   3.6212   3.6469   3.6482
     3.6595   3.6847   3.6908   3.7320   3.7327   3.7657   3.7744   3.7790
     3.7921   3.7941   3.8015   3.8282   3.8526   3.8650   3.8698   3.8698
     3.8936   3.8953   3.9021   3.9073   3.9194   3.9261   3.9346   3.9389
     3.9496   3.9550   3.9553   3.9611   3.9636   3.9802   3.9878   3.9941
     4.0119   4.0262   4.0426   4.0732   4.0802   4.0869   4.0954   4.0993
     4.1079   4.1101   4.1178   4.1338   4.1400   4.1646   4.1655   4.1658
     4.1744   4.1755   4.1832   4.1890   4.1906   4.2009   4.2067   4.2186
     4.2378   4.2550   4.3003   4.3059   4.3145   4.3185   4.3219   4.3330
     4.3481   4.3579   4.3674   4.3705   4.3808   4.3829   4.3945   4.4298
     4.4315   4.4335   4.4526   4.4661   4.4686   4.4917   4.5098   4.5128
     4.5189   4.5251   4.5282   4.5336   4.5363   4.5974   4.6327   4.6593
     4.6927   4.6992   4.7084   4.7184   4.7252   4.7467   4.7515   4.7645
     4.7728   4.8138   4.8721   4.8810   4.8821   4.8920   4.8962   4.8991
     4.9029   4.9299   4.9597   4.9750   4.9811   4.9914   4.9991   5.0117
     5.0294   5.0307   5.0353   5.0605   5.0822   5.1088   5.1116   5.1244
     5.1281   5.1513   5.1541   5.1908   5.2013   5.2161   5.2236   5.2292
     5.2317   5.2363   5.2604   5.2615   5.2660   5.2704   5.2755   5.2830
     5.2962   5.3189   5.3271   5.3322   5.3344   5.3403   5.3473   5.3511
     5.3545   5.3752   5.4064   5.4199   5.4280   5.4314   5.4608   5.4792
     5.4888   5.4962   5.5163   5.5164   5.5400   5.5454   5.5510   5.5549
     5.5725   5.6063   5.6111   5.6411   5.6478   5.6786   5.6972   5.6999
     5.7303   5.7482   5.7566   5.7622   5.7907   5.8117   5.8306   5.8487
     5.8599   5.8654   5.8929   5.8972   5.9060   5.9252   5.9599   5.9770
     5.9780   5.9954   5.9963   6.0131   6.0739   6.0943   6.0977   6.1168
     6.1180   6.1336   6.1429   6.1658   6.1750   6.1792   6.1962   6.2014
     6.2065   6.2196   6.2314   6.2339   6.2347   6.2529   6.2598   6.2670
     6.2938   6.3037   6.3139   6.3279   6.3362   6.3460   6.3461   6.3477
     6.3609   6.3716   6.3762   6.3777   6.3788   6.3905   6.3922   6.3925
     6.3957   6.3980   6.3989   6.4286   6.4318   6.4325   6.4347   6.4386
     6.4516   6.4562   6.4651   6.4677   6.4864   6.5117   6.5126   6.5343
     6.5460   6.5486   6.5646   6.5714   6.5749   6.5871   6.5876   6.5957
     6.5991   6.6010   6.6085   6.6333   6.6382   6.6527   6.6706   6.6969
     6.6975   6.7190   6.7247   6.7565   6.7605   6.8337   6.8529   6.8764
     6.9123   6.9128   6.9558   7.0799   7.5266   7.6698   7.7396   7.7970
     7.7988   7.8522   8.0376   8.0477   8.1462   8.2410   8.2771   8.3597
     8.4534   8.4655   8.5508   8.5856   8.7138   8.7752   8.7833   8.7921
     8.9273   8.9468   8.9508   9.0403   9.0558   9.1042   9.1965   9.2728
     9.2777   9.2966   9.3531   9.4611   9.5885   9.6442   9.6612   9.7176
     9.7599   9.8306   9.9043   9.9109   9.9362   9.9944   9.9979  10.0744
    10.5294  10.6511  10.8569  10.8657  10.9821  11.0638  11.0766  11.1450
    11.2294  11.2590  11.2643  11.3281  11.3376  11.3825  11.4668  11.7284
    11.8212  11.8826  11.9531  12.0478  12.0585  12.0969  12.3380  12.3799
    12.4490  12.5510  12.6091  12.6162  12.6196  12.6452  12.7842  12.8468
    12.8749  13.2440  13.2844  13.3197  13.3837  13.4641  13.4914  13.6763
    13.6815  13.7256  13.8092  13.8229  13.8832  13.9535  13.9593  13.9910
    13.9954  13.9985  14.0079

          k = 0.0417 0.1443 0.0000 ( 55027 PWs)   bands (ev):

    -0.7120  -0.3720   0.1227   0.1367   0.4501   0.6974   0.9046   1.2202
     1.3073   1.4289   1.5339   1.5450   1.6053   1.6498   1.6506   1.6610
     1.6966   1.7919   1.8613   1.8866   1.8973   1.9035   1.9192   1.9251
     1.9444   2.0366   2.0574   2.0854   2.0993   2.1140   2.1520   2.1679
     2.1709   2.1738   2.1759   2.1997   2.2057   2.2133   2.2505   2.2573
     2.2770   2.2864   2.2877   2.2885   2.3123   2.3237   2.3385   2.3594
     2.3612   2.3626   2.4145   2.4229   2.4686   2.4861   2.4947   2.4997
     2.5088   2.5181   2.5196   2.5548   2.5683   2.5879   2.6430   2.6489
     2.6926   2.6954   2.7019   2.7022   2.7050   2.7114   2.7232   2.7433
     2.8036   2.8196   2.8705   2.8926   2.9247   3.0052   3.0105   3.0411
     3.0827   3.0889   3.1044   3.1304   3.1417   3.1627   3.2320   3.2377
     3.2488   3.2682   3.2915   3.3400   3.3500   3.3540   3.3744   3.4097
     3.4396   3.4520   3.4837   3.5019   3.5156   3.5242   3.5494   3.5560
     3.5843   3.5887   3.6152   3.6160   3.6200   3.6487   3.6780   3.6854
     3.6859   3.7021   3.7081   3.7496   3.7649   3.7670   3.7707   3.7864
     3.7915   3.8465   3.8507   3.8648   3.8923   3.9038   3.9096   3.9113
     3.9126   3.9279   3.9387   3.9444   3.9451   3.9480   3.9655   3.9764
     3.9777   3.9822   4.0007   4.0220   4.0220   4.0252   4.0561   4.0629
     4.0670   4.0736   4.0746   4.0850   4.1084   4.1158   4.1223   4.1397
     4.1463   4.1479   4.1739   4.1779   4.1813   4.1874   4.1914   4.1946
     4.1974   4.2188   4.2220   4.2238   4.2261   4.2319   4.2687   4.2716
     4.2826   4.3034   4.3079   4.3230   4.3272   4.3446   4.3491   4.3507
     4.3605   4.3784   4.3987   4.4045   4.4189   4.4233   4.4239   4.4321
     4.4576   4.4610   4.4624   4.4932   4.4935   4.5053   4.5336   4.5396
     4.5489   4.5569   4.5777   4.5802   4.5838   4.5906   4.5985   4.6126
     4.6307   4.6647   4.6705   4.6893   4.7064   4.7170   4.7478   4.7951
     4.8047   4.8209   4.8263   4.8333   4.8598   4.8663   4.8960   4.9185
     4.9265   4.9465   4.9468   4.9664   4.9751   4.9819   4.9850   4.9993
     5.0121   5.0273   5.0478   5.0520   5.0840   5.0935   5.0984   5.1168
     5.1296   5.1356   5.1718   5.1824   5.2014   5.2201   5.2386   5.2517
     5.2545   5.2574   5.2796   5.3213   5.3461   5.3468   5.3470   5.3597
     5.3710   5.3783   5.3928   5.3968   5.4099   5.4288   5.4372   5.4491
     5.4541   5.4708   5.4806   5.4942   5.4979   5.5077   5.5095   5.5265
     5.5379   5.5500   5.5536   5.5748   5.5793   5.5815   5.5886   5.6044
     5.6072   5.6129   5.6433   5.6511   5.6678   5.6711   5.7143   5.7284
     5.7295   5.7676   5.7740   5.7899   5.7914   5.7997   5.8345   5.8587
     5.8640   5.8780   5.8976   5.9035   5.9071   5.9139   5.9433   5.9479
     5.9722   5.9823   5.9841   6.0199   6.0236   6.0298   6.0378   6.0594
     6.1090   6.1183   6.1241   6.1252   6.1270   6.1465   6.1503   6.1564
     6.1591   6.1741   6.1937   6.2108   6.2146   6.2234   6.2278   6.2344
     6.2361   6.2504   6.2539   6.2716   6.2757   6.2758   6.2938   6.3003
     6.3010   6.3144   6.3144   6.3210   6.3224   6.3273   6.3342   6.3572
     6.3622   6.3664   6.3760   6.3839   6.3895   6.3907   6.3930   6.4003
     6.4265   6.4355   6.4493   6.4540   6.4583   6.4642   6.4653   6.4809
     6.4873   6.5050   6.5418   6.5432   6.5491   6.5641   6.5645   6.5679
     6.5866   6.5882   6.5970   6.5994   6.6022   6.6023   6.6267   6.6272
     6.7174   6.7183   6.7251   6.7445   6.7964   6.8301   6.8746   6.8773
     6.9106   6.9107   6.9660   7.1489   7.4630   7.4847   7.5677   7.6163
     7.6595   7.7838   7.7876   7.7931   7.9867   8.0370   8.0831   8.2065
     8.2357   8.2943   8.2999   8.4393   8.4792   8.5083   8.6561   8.6806
     8.7583   8.7941   8.9604   9.0338   9.0369   9.1523   9.1737   9.2184
     9.2661   9.4276   9.4831   9.7075   9.7081   9.7105   9.7678   9.7774
     9.9048   9.9557  10.0862  10.2303  10.3585  10.5418  10.6336  10.6517
    10.6522  10.6635  10.9775  11.0146  11.0274  11.1342  11.2091  11.2605
    11.3007  11.3340  11.3797  11.4415  11.5258  11.6091  11.6929  11.7723
    11.8430  11.8434  12.0152  12.0883  12.0922  12.0992  12.2303  12.2954
    12.4259  12.4476  12.5342  12.5529  12.5787  12.6668  12.7282  12.8281
    12.9230  12.9506  13.0059  13.1169  13.2777  13.3256  13.4003  13.4307
    13.4392  13.5548  13.6183  13.6330  13.6480  13.7157  13.7996  13.8986
    14.0117  14.0501  14.1011

          k = 0.0417 0.2406 0.0000 ( 55030 PWs)   bands (ev):

    -0.5138  -0.2261  -0.1777   0.1021   0.3118   0.5802   0.8822   1.1389
     1.4019   1.5058   1.5835   1.6433   1.7091   1.7517   1.7548   1.8040
     1.8169   1.8301   1.8557   1.9103   1.9393   1.9476   1.9731   1.9999
     2.0096   2.0105   2.0134   2.0285   2.0428   2.0659   2.0743   2.0846
     2.1273   2.1442   2.1467   2.1617   2.1689   2.1963   2.2341   2.2418
     2.2478   2.2735   2.2887   2.3028   2.3081   2.3383   2.3439   2.3702
     2.3808   2.3834   2.4081   2.4366   2.4397   2.4495   2.4516   2.4563
     2.4744   2.4767   2.5358   2.5380   2.5535   2.5682   2.5906   2.5945
     2.5987   2.6141   2.6170   2.6592   2.6638   2.6732   2.6933   2.7014
     2.7718   2.7726   2.7856   2.8062   2.8069   2.8491   2.8755   2.8759
     2.9230   2.9565   3.1222   3.1332   3.1401   3.1631   3.1812   3.1993
     3.2743   3.2793   3.3127   3.3276   3.3540   3.3779   3.3792   3.4050
     3.4214   3.5152   3.5321   3.5437   3.5538   3.5763   3.5856   3.5909
     3.5936   3.6248   3.6264   3.6298   3.6448   3.6924   3.6979   3.7045
     3.7201   3.7350   3.7438   3.7593   3.7595   3.7715   3.7853   3.7877
     3.8267   3.8467   3.8556   3.8572   3.8678   3.8683   3.9197   3.9235
     3.9410   3.9488   3.9530   3.9711   3.9758   3.9800   4.0155   4.0164
     4.0194   4.0419   4.0534   4.0580   4.0697   4.0710   4.0765   4.0790
     4.1023   4.1097   4.1198   4.1318   4.1394   4.1412   4.1500   4.1549
     4.1625   4.1695   4.1832   4.1871   4.1936   4.2004   4.2022   4.2051
     4.2183   4.2369   4.2544   4.2560   4.2740   4.2746   4.2887   4.2968
     4.3006   4.3062   4.3148   4.3225   4.3395   4.3506   4.3536   4.3689
     4.3692   4.3710   4.3816   4.3938   4.3996   4.4255   4.4667   4.4712
     4.4782   4.4855   4.4906   4.4956   4.4992   4.5051   4.5343   4.5356
     4.5361   4.5559   4.5745   4.5788   4.5864   4.6621   4.6804   4.6919
     4.7145   4.7189   4.7256   4.7308   4.7853   4.8014   4.8103   4.8150
     4.8177   4.8241   4.8261   4.8497   4.8595   4.8717   4.9012   4.9067
     4.9253   4.9586   4.9712   4.9820   5.0022   5.0066   5.0166   5.0249
     5.0342   5.0373   5.0844   5.0946   5.1094   5.1224   5.1293   5.1733
     5.1804   5.2000   5.2250   5.2311   5.2390   5.2410   5.2504   5.2591
     5.2741   5.2768   5.2859   5.2972   5.3265   5.3370   5.3443   5.3643
     5.3673   5.3731   5.3763   5.3767   5.3877   5.4029   5.4035   5.4091
     5.4729   5.4869   5.5334   5.5371   5.5425   5.5470   5.5778   5.5822
     5.5991   5.6076   5.6202   5.6321   5.6406   5.6680   5.6745   5.6967
     5.7080   5.7308   5.7311   5.7334   5.7484   5.7668   5.7698   5.7780
     5.8001   5.8289   5.8341   5.8374   5.8438   5.8538   5.8542   5.8571
     5.8575   5.9006   5.9035   5.9108   5.9490   5.9495   5.9588   5.9688
     5.9909   6.0095   6.0131   6.0142   6.0279   6.0360   6.0440   6.0478
     6.0536   6.0574   6.0719   6.0736   6.0766   6.0774   6.0907   6.0911
     6.1010   6.1245   6.1301   6.1450   6.1529   6.1687   6.1763   6.1842
     6.1929   6.1995   6.2058   6.2094   6.2254   6.2259   6.2352   6.2482
     6.2575   6.2636   6.2648   6.2657   6.2673   6.2731   6.2791   6.2827
     6.2912   6.2931   6.3071   6.3172   6.3338   6.3363   6.3497   6.3589
     6.3649   6.3701   6.3773   6.3778   6.4186   6.4244   6.4252   6.4424
     6.4454   6.4497   6.4743   6.5161   6.5467   6.5473   6.5484   6.5508
     6.5845   6.5853   6.5894   6.5919   6.5991   6.5996   6.6020   6.6042
     6.6626   6.7167   6.7247   6.7282   6.7395   6.8159   6.8258   6.8951
     6.8962   6.8974   6.9054   6.9062   6.9118   7.0667   7.4071   7.4967
     7.6143   7.6393   7.7172   7.8003   7.8510   7.8662   8.0290   8.0664
     8.1973   8.2647   8.3294   8.3615   8.4200   8.4215   8.5164   8.5961
     8.6836   8.8061   8.8540   9.0092   9.0220   9.1286   9.2263   9.2505
     9.3119   9.3897   9.7011   9.7303   9.7558   9.7804   9.7877   9.8688
    10.0744  10.2500  10.2530  10.4662  10.5446  10.5919  10.6435  10.7565
    10.7871  11.0498  11.1349  11.1946  11.2182  11.2268  11.2741  11.3420
    11.3898  11.4438  11.4824  11.6597  11.6621  11.7792  11.8063  11.8564
    11.9858  12.0116  12.1031  12.1128  12.1263  12.2553  12.3037  12.3200
    12.3471  12.4088  12.5247  12.5924  12.6220  12.6534  12.7047  12.7650
    12.8192  12.8498  12.9356  13.0695  13.0963  13.1680  13.2010  13.2841
    13.4465  13.4610  13.4633  13.5268  13.6556  13.6623  13.6885  13.8265
    13.8962  13.9580  14.0995

          k = 0.1250 0.0481 0.0000 ( 55079 PWs)   bands (ev):

    -0.7371  -0.3966   0.0989   0.6179   0.6744   0.9017   1.0349   1.1979
     1.2810   1.3082   1.5129   1.6012   1.6172   1.6297   1.6348   1.6504
     1.6768   1.7829   1.8490   1.8750   1.8937   1.8997   1.9018   1.9259
     1.9817   2.0480   2.0793   2.0925   2.1251   2.1391   2.1540   2.1634
     2.1652   2.2024   2.2212   2.2302   2.2416   2.2445   2.2811   2.2836
     2.2969   2.3111   2.3426   2.3517   2.3563   2.4043   2.4142   2.4362
     2.4404   2.4701   2.4725   2.4803   2.5226   2.5389   2.5419   2.5509
     2.5817   2.5908   2.6333   2.6410   2.6632   2.6765   2.6786   2.6938
     2.7240   2.7517   2.7860   2.7897   2.8261   2.8324   2.8638   2.9155
     2.9237   2.9483   2.9914   3.0344   3.0607   3.0733   3.0746   3.1141
     3.1540   3.1628   3.1773   3.1787   3.1960   3.2221   3.2577   3.2960
     3.2991   3.2995   3.3291   3.3325   3.3383   3.3597   3.3721   3.3884
     3.3902   3.4134   3.4376   3.4377   3.4694   3.4704   3.4855   3.5314
     3.5527   3.5593   3.5649   3.5679   3.6023   3.6091   3.6244   3.6292
     3.6442   3.6739   3.6971   3.7176   3.7216   3.7228   3.7297   3.7351
     3.7745   3.7778   3.8087   3.8156   3.8179   3.8415   3.8590   3.8599
     3.8755   3.8802   3.8837   3.8955   3.8984   3.9144   3.9332   3.9350
     3.9545   3.9558   3.9575   3.9662   3.9725   3.9766   3.9818   3.9839
     3.9898   4.0188   4.0325   4.0583   4.0635   4.0728   4.0747   4.0828
     4.0922   4.0989   4.1018   4.1098   4.1140   4.1380   4.1647   4.1684
     4.1782   4.1814   4.1846   4.1891   4.1916   4.1937   4.2005   4.2079
     4.2223   4.2289   4.2368   4.2463   4.2520   4.2926   4.3041   4.3123
     4.3213   4.3305   4.3597   4.3652   4.3674   4.3687   4.3838   4.3941
     4.4063   4.4135   4.4267   4.4378   4.4439   4.4619   4.4825   4.4980
     4.5011   4.5179   4.5231   4.5426   4.5430   4.5525   4.5696   4.6478
     4.6509   4.6738   4.6755   4.7124   4.7463   4.7706   4.7718   4.8046
     4.8270   4.8437   4.8544   4.8742   4.8808   4.8937   4.9179   4.9191
     4.9329   4.9343   4.9401   4.9459   4.9472   4.9516   4.9816   5.0068
     5.0114   5.0164   5.0434   5.0631   5.0667   5.0929   5.1000   5.1215
     5.1345   5.1392   5.1396   5.1516   5.1547   5.1930   5.2108   5.2260
     5.2272   5.2328   5.2500   5.2585   5.2603   5.2670   5.2864   5.3120
     5.3123   5.3246   5.3273   5.3357   5.3414   5.3537   5.3621   5.3641
     5.3692   5.4011   5.4060   5.4323   5.4524   5.4707   5.4779   5.5009
     5.5062   5.5087   5.5255   5.5506   5.5692   5.5725   5.5734   5.5809
     5.5984   5.5986   5.6383   5.6418   5.6502   5.6609   5.6851   5.6916
     5.7034   5.7297   5.7564   5.7598   5.7780   5.7906   5.7991   5.8006
     5.8398   5.8471   5.8642   5.8696   5.8738   5.8804   5.9236   5.9371
     5.9530   5.9699   6.0303   6.0320   6.0449   6.0553   6.0759   6.0792
     6.0886   6.0963   6.0984   6.1208   6.1315   6.1335   6.1564   6.1653
     6.1827   6.1833   6.2068   6.2207   6.2227   6.2246   6.2348   6.2378
     6.2488   6.2579   6.2690   6.2773   6.2823   6.2868   6.2921   6.2955
     6.3087   6.3122   6.3149   6.3269   6.3367   6.3452   6.3465   6.3499
     6.3561   6.3642   6.3676   6.3733   6.3754   6.3820   6.3938   6.3950
     6.4012   6.4101   6.4199   6.4471   6.4472   6.4793   6.4812   6.4823
     6.4835   6.5080   6.5083   6.5283   6.5345   6.5377   6.5397   6.5452
     6.5461   6.5504   6.5767   6.5944   6.6053   6.6250   6.6539   6.6557
     6.6613   6.6685   6.6789   6.7014   6.7482   6.7856   6.7883   6.8420
     6.8438   6.9537   7.0460   7.1245   7.1993   7.2039   7.3953   7.3983
     7.5526   7.6292   7.7219   7.7927   7.8827   7.9082   8.1020   8.1390
     8.1864   8.1908   8.2658   8.4425   8.5428   8.5574   8.7581   8.8449
     8.8611   8.9424   8.9857   9.0162   9.0977   9.1030   9.1661   9.1958
     9.3704   9.4414   9.4739   9.5982   9.7590   9.8114   9.8567   9.9074
    10.0291  10.0777  10.1010  10.1406  10.1419  10.3275  10.5030  10.5045
    10.7768  10.7969  10.9418  11.0387  11.0895  11.1636  11.2336  11.2417
    11.3477  11.3507  11.3927  11.4102  11.4692  11.5350  11.5749  11.7031
    11.9239  11.9536  11.9608  12.0719  12.0838  12.1052  12.1414  12.1803
    12.4424  12.4882  12.5527  12.6182  12.7000  12.7425  12.8207  12.8405
    12.9775  13.0319  13.2618  13.3349  13.4286  13.5813  13.5985  13.6312
    13.7211  13.7978  13.8118  13.9579  14.0039  14.0468  14.0562  14.0629
    14.1659  14.3123  14.4205

          k = 0.1250 0.1443 0.0000 ( 55061 PWs)   bands (ev):

    -0.6371  -0.2983   0.1948   0.2063   0.5171   0.7687   0.9683   1.2913
     1.3787   1.4917   1.6014   1.6107   1.6117   1.6684   1.7140   1.7257
     1.7567   1.8528   1.8594   1.9156   1.9239   1.9385   1.9572   1.9644
     1.9896   2.0035   2.0802   2.0954   2.1162   2.1473   2.1647   2.1686
     2.1981   2.2066   2.2216   2.2218   2.2394   2.2609   2.2717   2.2762
     2.3136   2.3213   2.3218   2.3235   2.3505   2.3771   2.3859   2.3883
     2.3930   2.3946   2.3984   2.4787   2.4794   2.4843   2.5097   2.5328
     2.5415   2.5527   2.5645   2.5867   2.6066   2.6156   2.6238   2.6829
     2.7090   2.7140   2.7270   2.7374   2.7618   2.7672   2.7713   2.7845
     2.8147   2.8643   2.8740   2.9333   2.9686   3.0244   3.0290   3.0910
     3.0985   3.1024   3.1243   3.1367   3.1503   3.1933   3.2460   3.2608
     3.2699   3.2986   3.2994   3.3421   3.3489   3.3814   3.4094   3.4149
     3.4222   3.4548   3.4608   3.4689   3.4800   3.4953   3.5255   3.5368
     3.5492   3.5528   3.5877   3.5906   3.6268   3.6390   3.6479   3.6633
     3.6772   3.6910   3.7236   3.7345   3.7374   3.7508   3.7994   3.8052
     3.8127   3.8246   3.8343   3.8367   3.8487   3.8728   3.8777   3.8915
     3.8966   3.9145   3.9165   3.9179   3.9224   3.9322   3.9486   3.9662
     3.9813   3.9920   3.9947   4.0119   4.0285   4.0294   4.0408   4.0427
     4.0446   4.0457   4.0593   4.0714   4.0817   4.1074   4.1099   4.1216
     4.1223   4.1504   4.1512   4.1612   4.1661   4.1692   4.1913   4.1935
     4.2028   4.2084   4.2120   4.2131   4.2285   4.2432   4.2485   4.2542
     4.2784   4.2839   4.2913   4.2995   4.3004   4.3219   4.3359   4.3457
     4.3469   4.3763   4.3769   4.3830   4.3853   4.4078   4.4101   4.4247
     4.4416   4.4465   4.4613   4.4696   4.5056   4.5160   4.5326   4.5452
     4.5524   4.5549   4.5566   4.5661   4.5810   4.5834   4.5967   4.6098
     4.6251   4.6418   4.6448   4.6708   4.6964   4.7052   4.7698   4.7799
     4.7990   4.8032   4.8192   4.8441   4.8509   4.8764   4.8797   4.8861
     4.9074   4.9075   4.9117   4.9255   4.9483   4.9551   4.9714   4.9714
     4.9754   4.9784   5.0303   5.0440   5.0698   5.0733   5.0772   5.0934
     5.1009   5.1180   5.1600   5.1610   5.1930   5.2104   5.2146   5.2368
     5.2451   5.2518   5.2812   5.2905   5.2969   5.3093   5.3285   5.3344
     5.3456   5.3613   5.3645   5.3700   5.3754   5.3878   5.3882   5.4065
     5.4296   5.4447   5.4532   5.4628   5.4636   5.4855   5.4912   5.4946
     5.4974   5.5317   5.5372   5.5373   5.5490   5.5739   5.5755   5.5951
     5.6159   5.6420   5.6433   5.6439   5.6787   5.6862   5.7087   5.7091
     5.7301   5.7420   5.7494   5.7689   5.7919   5.8193   5.8263   5.8406
     5.8546   5.8625   5.8959   5.9022   5.9136   5.9147   5.9401   5.9580
     5.9704   5.9796   6.0109   6.0272   6.0296   6.0558   6.0636   6.0663
     6.0719   6.0871   6.0906   6.1051   6.1143   6.1197   6.1341   6.1521
     6.1546   6.1610   6.1740   6.1888   6.1951   6.1991   6.2014   6.2023
     6.2082   6.2180   6.2200   6.2286   6.2425   6.2475   6.2497   6.2574
     6.2587   6.2646   6.2685   6.2732   6.2877   6.2886   6.2959   6.3145
     6.3294   6.3391   6.3471   6.3474   6.3549   6.3588   6.3710   6.3754
     6.3801   6.3882   6.3900   6.3969   6.4012   6.4317   6.4547   6.4667
     6.4733   6.4738   6.4739   6.4821   6.5068   6.5310   6.5367   6.5379
     6.5406   6.5450   6.5462   6.5507   6.5594   6.5800   6.5876   6.6145
     6.6568   6.6676   6.6833   6.7146   6.7910   6.7984   6.8401   6.8408
     6.9104   6.9559   6.9641   7.0723   7.0948   7.1915   7.2983   7.3759
     7.4282   7.4843   7.5299   7.6599   7.7034   7.7552   7.7589   7.8872
     7.9649   8.2565   8.2718   8.3176   8.3490   8.5147   8.7451   8.8107
     8.9663   8.9804   9.0037   9.0600   9.1494   9.2329   9.2552   9.2601
     9.3438   9.5720   9.6172   9.6503   9.7778   9.7893   9.8020   9.8867
     9.9663  10.1476  10.2437  10.3086  10.3247  10.5116  10.7338  10.7664
    10.7994  10.8091  11.0016  11.0535  11.1195  11.2010  11.2894  11.3368
    11.3812  11.4399  11.5397  11.5533  11.6097  11.6596  11.6727  11.7685
    11.8383  11.8471  11.9862  12.0659  12.1284  12.1626  12.2721  12.2966
    12.3098  12.4714  12.4877  12.5138  12.7129  12.8816  12.8858  12.9858
    13.0007  13.0879  13.2908  13.4121  13.4960  13.5278  13.5799  13.6112
    13.6138  13.6345  13.6809  13.8497  13.9060  14.0028  14.0576  14.1027
    14.1621  14.2007  14.2313

          k = 0.1250 0.2406 0.0000 ( 55022 PWs)   bands (ev):

    -0.4405  -0.1547  -0.1059   0.1715   0.3816   0.6470   0.9506   1.2039
     1.4700   1.5750   1.6491   1.6801   1.7087   1.7733   1.7998   1.8192
     1.8670   1.8783   1.9139   1.9189   1.9255   2.0014   2.0015   2.0129
     2.0351   2.0358   2.0690   2.0732   2.1040   2.1110   2.1239   2.1460
     2.1482   2.1539   2.1708   2.1914   2.1931   2.2157   2.2289   2.2861
     2.2884   2.2891   2.2921   2.3279   2.3414   2.3457   2.3625   2.3731
     2.3890   2.4179   2.4279   2.4339   2.4592   2.4735   2.4816   2.5062
     2.5110   2.5378   2.5473   2.5897   2.5897   2.5973   2.6016   2.6479
     2.6485   2.6628   2.6633   2.6757   2.7099   2.7334   2.7507   2.7532
     2.7624   2.7935   2.8119   2.8313   2.8661   2.8787   2.8938   2.9007
     2.9846   3.0231   3.1231   3.1448   3.1694   3.1761   3.2073   3.2240
     3.2934   3.3060   3.3244   3.3296   3.3597   3.3859   3.3860   3.4117
     3.4473   3.4624   3.4784   3.5043   3.5241   3.5342   3.5614   3.5627
     3.5891   3.5924   3.5983   3.6087   3.6498   3.6546   3.6589   3.7060
     3.7155   3.7247   3.7371   3.7468   3.7593   3.7662   3.7957   3.8030
     3.8272   3.8288   3.8381   3.8391   3.8570   3.8702   3.8923   3.9001
     3.9186   3.9344   3.9450   3.9628   3.9807   3.9833   3.9979   4.0099
     4.0104   4.0303   4.0307   4.0359   4.0641   4.0664   4.0781   4.0812
     4.0964   4.1010   4.1054   4.1109   4.1301   4.1322   4.1376   4.1502
     4.1530   4.1693   4.1827   4.1986   4.2055   4.2085   4.2086   4.2286
     4.2300   4.2347   4.2506   4.2668   4.2698   4.2919   4.2935   4.2939
     4.2995   4.3026   4.3217   4.3229   4.3298   4.3331   4.3542   4.3573
     4.3623   4.3764   4.3880   4.3935   4.3965   4.4040   4.4321   4.4340
     4.4595   4.4649   4.4953   4.5039   4.5242   4.5338   4.5409   4.5423
     4.5557   4.5561   4.5830   4.6098   4.6191   4.6272   4.6622   4.6655
     4.6926   4.7013   4.7085   4.7145   4.7244   4.7276   4.7484   4.7639
     4.7676   4.7862   4.7894   4.7961   4.8184   4.8403   4.8488   4.9105
     4.9331   4.9426   4.9570   4.9629   4.9678   4.9681   5.0072   5.0133
     5.0190   5.0347   5.0591   5.0699   5.0713   5.0773   5.0942   5.1000
     5.1254   5.1291   5.1432   5.1485   5.1551   5.1831   5.1843   5.1946
     5.2264   5.2300   5.2607   5.2721   5.2808   5.2971   5.3216   5.3280
     5.3348   5.3479   5.3563   5.3609   5.3720   5.4003   5.4067   5.4192
     5.4377   5.4563   5.4637   5.4969   5.4986   5.5194   5.5267   5.5333
     5.5432   5.5434   5.5797   5.5871   5.5939   5.6078   5.6223   5.6302
     5.6355   5.6756   5.6794   5.6938   5.6973   5.7012   5.7258   5.7412
     5.7562   5.7628   5.7679   5.7926   5.7961   5.8068   5.8185   5.8261
     5.8728   5.8763   5.9010   5.9080   5.9080   5.9377   5.9525   5.9543
     5.9553   5.9587   5.9700   5.9804   5.9885   6.0004   6.0126   6.0186
     6.0289   6.0315   6.0322   6.0629   6.0722   6.0883   6.1030   6.1039
     6.1206   6.1214   6.1346   6.1471   6.1471   6.1480   6.1559   6.1643
     6.1671   6.1747   6.1800   6.1841   6.1869   6.2098   6.2190   6.2197
     6.2323   6.2325   6.2427   6.2476   6.2558   6.2598   6.2773   6.2810
     6.2889   6.2922   6.3210   6.3261   6.3378   6.3423   6.3576   6.3809
     6.3856   6.3877   6.3911   6.4199   6.4233   6.4346   6.4422   6.4528
     6.4812   6.4813   6.4922   6.5105   6.5113   6.5149   6.5186   6.5314
     6.5396   6.5405   6.5489   6.5496   6.5572   6.5638   6.5810   6.6147
     6.6645   6.6672   6.7072   6.7672   6.8181   6.8229   6.8328   6.8354
     6.8426   6.9227   6.9712   7.0300   7.0386   7.0593   7.1256   7.1763
     7.1871   7.2757   7.3457   7.3471   7.5599   7.5887   7.6640   7.6745
     7.8643   8.0189   8.2465   8.2605   8.3482   8.3646   8.8022   9.0042
     9.0301   9.0950   9.1235   9.2665   9.3014   9.3083   9.4092   9.4700
     9.4730   9.6381   9.6382   9.7735   9.7989   9.8459   9.8570   9.9281
    10.0797  10.1339  10.2083  10.3041  10.3669  10.3903  10.5122  10.5469
    10.5825  10.7552  10.8616  10.8782  11.0971  11.1787  11.2674  11.2953
    11.3707  11.5077  11.6902  11.7291  11.7682  11.9384  12.0033  12.0777
    12.1100  12.1581  12.2228  12.2483  12.2801  12.3199  12.3317  12.4725
    12.4820  12.5627  12.7156  12.7315  12.8588  12.8717  13.0058  13.0118
    13.0744  13.1319  13.2140  13.2583  13.2668  13.3371  13.3809  13.5353
    13.5407  13.5617  13.6858  13.7469  13.8519  13.8814  13.9068  14.0045
    14.1478  14.1993  14.2591

          k = 0.2083 0.0481 0.0000 ( 55067 PWs)   bands (ev):

    -0.5875  -0.2496   0.2428   0.7501   0.8164   1.0261   1.1688   1.3394
     1.4025   1.4233   1.6067   1.6471   1.6937   1.7255   1.7556   1.7633
     1.7976   1.8384   1.8537   1.8898   1.9311   1.9418   1.9646   1.9731
     1.9924   2.0436   2.0855   2.0887   2.1379   2.1387   2.1459   2.1986
     2.2168   2.2309   2.2416   2.2513   2.2893   2.3434   2.3437   2.3478
     2.3554   2.4010   2.4164   2.4224   2.4284   2.4307   2.4891   2.4986
     2.5323   2.5394   2.5683   2.5826   2.5924   2.6073   2.6192   2.6601
     2.6793   2.7041   2.7049   2.7087   2.7165   2.7552   2.7573   2.7676
     2.7828   2.7855   2.8081   2.8792   2.8834   2.9155   2.9313   2.9434
     2.9596   2.9870   3.0503   3.0698   3.0936   3.1030   3.1075   3.1522
     3.1565   3.1761   3.1813   3.1870   3.1941   3.2304   3.2477   3.2800
     3.2932   3.2947   3.3108   3.3116   3.3160   3.3306   3.3375   3.3517
     3.3738   3.4120   3.4162   3.4311   3.4489   3.4649   3.4696   3.4767
     3.4911   3.4920   3.5191   3.5397   3.5548   3.5578   3.5792   3.6008
     3.6149   3.6471   3.6489   3.6569   3.6665   3.6681   3.6801   3.6855
     3.7575   3.7582   3.7859   3.7886   3.7903   3.8183   3.8405   3.8486
     3.8518   3.8586   3.8605   3.8664   3.8919   3.8929   3.8982   3.9279
     3.9448   3.9539   3.9569   3.9643   3.9691   3.9693   3.9700   3.9963
     3.9986   4.0049   4.0122   4.0287   4.0298   4.0464   4.0477   4.0503
     4.0588   4.0633   4.0753   4.1147   4.1248   4.1370   4.1393   4.1420
     4.1498   4.1503   4.1615   4.1703   4.1723   4.1759   4.1832   4.1910
     4.2008   4.2147   4.2265   4.2488   4.2537   4.2596   4.2613   4.2635
     4.2694   4.2950   4.2951   4.3094   4.3242   4.3761   4.3853   4.3900
     4.4033   4.4081   4.4103   4.4217   4.4415   4.4616   4.4712   4.4816
     4.4941   4.5045   4.5298   4.5305   4.5500   4.5553   4.5662   4.5981
     4.6150   4.6167   4.6622   4.7195   4.7271   4.7581   4.7700   4.7721
     4.8219   4.8305   4.8354   4.8474   4.8532   4.8557   4.8766   4.8891
     4.9084   4.9104   4.9117   4.9237   4.9407   4.9467   4.9553   4.9776
     4.9898   5.0122   5.0317   5.0458   5.0544   5.0720   5.0845   5.0853
     5.0945   5.1316   5.1429   5.1878   5.1885   5.1886   5.1886   5.2128
     5.2191   5.2231   5.2292   5.2446   5.2592   5.2679   5.2688   5.2771
     5.2796   5.3155   5.3250   5.3352   5.3523   5.3591   5.3752   5.3822
     5.3883   5.3932   5.3938   5.4189   5.4294   5.4616   5.4625   5.4683
     5.4784   5.5076   5.5136   5.5265   5.5391   5.5472   5.5518   5.5564
     5.5629   5.5942   5.5964   5.6260   5.6286   5.6531   5.6632   5.6823
     5.6871   5.7289   5.7401   5.7503   5.7672   5.7944   5.7961   5.8124
     5.8128   5.8176   5.8329   5.8596   5.8616   5.8776   5.9059   5.9144
     5.9378   5.9452   5.9625   5.9747   5.9896   5.9985   6.0241   6.0404
     6.0561   6.0636   6.0644   6.0698   6.0910   6.0980   6.1079   6.1094
     6.1110   6.1271   6.1360   6.1462   6.1471   6.1587   6.1600   6.1637
     6.1640   6.1800   6.1802   6.1899   6.1920   6.2092   6.2251   6.2325
     6.2354   6.2355   6.2405   6.2419   6.2545   6.2636   6.2721   6.2764
     6.2769   6.2771   6.2855   6.2858   6.2897   6.2964   6.3091   6.3133
     6.3260   6.3471   6.3516   6.3629   6.3793   6.3853   6.3914   6.4203
     6.4223   6.4350   6.4379   6.4408   6.4452   6.4515   6.4542   6.4688
     6.4964   6.5028   6.5071   6.5573   6.5627   6.5720   6.5771   6.5936
     6.6187   6.6397   6.6573   6.6612   6.6678   6.6761   6.6850   6.6941
     6.7146   6.7161   6.7982   6.8758   6.9864   7.0634   7.0977   7.1044
     7.2569   7.2670   7.4134   7.5112   7.5949   7.6024   7.7092   7.7919
     7.9025   7.9882   8.0955   8.2153   8.2776   8.3051   8.5498   8.7359
     8.8266   8.9293   9.0116   9.0722   9.0888   9.1528   9.3478   9.4148
     9.6531   9.6603   9.7166   9.7776   9.8380   9.8854   9.9723  10.0377
    10.0482  10.2264  10.2621  10.4361  10.4455  10.5774  10.6216  10.9049
    11.0044  11.0661  11.1810  11.2102  11.2913  11.3185  11.3681  11.4650
    11.5089  11.5140  11.5188  11.5923  11.6760  11.7287  11.7802  11.8406
    11.9629  12.0044  12.0150  12.0997  12.1629  12.3031  12.3516  12.3762
    12.5155  12.5738  12.6339  12.7545  12.8498  12.9213  12.9617  13.0675
    13.2235  13.4247  13.4744  13.5124  13.5703  13.6158  13.7456  13.7555
    13.7672  13.8011  13.8407  14.0122  14.1021  14.1306  14.1510  14.1848
    14.2949  14.3917  14.5287

          k = 0.2083 0.1443 0.0000 ( 55049 PWs)   bands (ev):

    -0.4894  -0.1536   0.3358   0.3412   0.6460   0.9070   1.0890   1.4283
     1.5163   1.5724   1.6072   1.7306   1.7333   1.7477   1.7898   1.8180
     1.8302   1.8359   1.8509   1.9450   1.9505   1.9605   2.0294   2.0369
     2.0433   2.0716   2.0771   2.1041   2.1152   2.1317   2.1957   2.2216
     2.2403   2.2549   2.2722   2.2913   2.2934   2.3040   2.3509   2.3573
     2.3716   2.3869   2.3923   2.4375   2.4381   2.4433   2.4563   2.4620
     2.4653   2.4713   2.4842   2.4883   2.5106   2.5703   2.5776   2.5878
     2.5890   2.6117   2.6370   2.6881   2.6883   2.7008   2.7052   2.7075
     2.7508   2.7848   2.7884   2.7938   2.8161   2.8263   2.8356   2.8617
     2.8766   2.9015   2.9878   2.9983   3.0069   3.0535   3.0791   3.1069
     3.1083   3.1253   3.1701   3.1794   3.1813   3.1957   3.2441   3.2608
     3.2731   3.3154   3.3237   3.3393   3.3704   3.3872   3.3901   3.4221
     3.4277   3.4379   3.4384   3.4498   3.4610   3.4901   3.4902   3.4951
     3.5052   3.5388   3.5631   3.5669   3.5837   3.5912   3.6179   3.6260
     3.6492   3.6890   3.6930   3.7071   3.7238   3.7277   3.7314   3.7375
     3.7494   3.7596   3.8016   3.8058   3.8133   3.8390   3.8414   3.8595
     3.8768   3.8802   3.8833   3.8989   3.9150   3.9214   3.9235   3.9397
     3.9496   3.9561   3.9668   3.9786   3.9908   3.9986   4.0172   4.0245
     4.0264   4.0275   4.0383   4.0681   4.0735   4.0767   4.0782   4.1156
     4.1164   4.1335   4.1449   4.1598   4.1680   4.1795   4.1829   4.1891
     4.2001   4.2093   4.2100   4.2233   4.2266   4.2400   4.2413   4.2496
     4.2595   4.2871   4.2892   4.3071   4.3072   4.3126   4.3152   4.3251
     4.3393   4.3456   4.3482   4.3527   4.3604   4.3606   4.3722   4.3827
     4.4134   4.4163   4.4576   4.4811   4.4829   4.4867   4.4892   4.5158
     4.5210   4.5239   4.5397   4.5412   4.5442   4.5652   4.5824   4.5836
     4.5970   4.6383   4.6418   4.6596   4.6825   4.7015   4.7479   4.7533
     4.7587   4.7636   4.7903   4.8231   4.8289   4.8363   4.8426   4.8457
     4.8582   4.8766   4.9194   4.9279   4.9331   4.9426   4.9528   4.9565
     4.9754   4.9812   4.9947   5.0153   5.0261   5.0288   5.0594   5.0809
     5.1063   5.1087   5.1348   5.1544   5.1556   5.1652   5.1767   5.1770
     5.1928   5.1965   5.1965   5.2144   5.2198   5.2273   5.2399   5.2583
     5.2972   5.3036   5.3065   5.3091   5.3369   5.3414   5.3471   5.3536
     5.3611   5.3814   5.3902   5.3970   5.4363   5.4524   5.4539   5.4716
     5.4787   5.4920   5.4942   5.5232   5.5272   5.5344   5.5448   5.5526
     5.5724   5.5767   5.6118   5.6201   5.6210   5.6414   5.6435   5.6563
     5.6726   5.6827   5.7299   5.7535   5.7754   5.8015   5.8168   5.8220
     5.8479   5.8597   5.8669   5.8841   5.9185   5.9233   5.9375   5.9442
     5.9497   5.9626   5.9701   5.9862   5.9950   6.0085   6.0155   6.0166
     6.0292   6.0392   6.0422   6.0519   6.0608   6.0682   6.0729   6.0950
     6.0953   6.1002   6.1194   6.1253   6.1340   6.1424   6.1467   6.1596
     6.1618   6.1688   6.1719   6.1738   6.1868   6.1935   6.2003   6.2113
     6.2193   6.2241   6.2258   6.2357   6.2482   6.2592   6.2649   6.2708
     6.2717   6.2723   6.2784   6.3099   6.3124   6.3179   6.3221   6.3400
     6.3510   6.3512   6.3663   6.3729   6.3839   6.3870   6.3900   6.4027
     6.4136   6.4165   6.4313   6.4317   6.4406   6.4435   6.4467   6.4525
     6.4758   6.4829   6.4961   6.5008   6.5089   6.5482   6.5580   6.5938
     6.6019   6.6099   6.6148   6.6632   6.6741   6.6776   6.6831   6.7114
     6.7151   6.7186   6.7233   6.7550   6.8586   6.8593   6.9700   7.0817
     7.1300   7.2085   7.2891   7.5873   7.6103   7.7384   7.7916   7.9545
     8.0388   8.0672   8.1679   8.2636   8.3152   8.3635   8.3998   8.4578
     8.6851   8.7158   8.9062   8.9643   9.0906   9.2938   9.3242   9.4100
     9.4723   9.7443   9.7509   9.8461   9.8478   9.9372  10.0410  10.1394
    10.2085  10.3990  10.4853  10.4983  10.5359  10.5950  10.7893  10.7905
    10.9617  10.9864  11.0082  11.0412  11.0647  11.1419  11.2131  11.3909
    11.4139  11.4748  11.6672  11.6775  11.7685  11.7864  11.8455  11.8819
    11.9905  12.1725  12.2139  12.2572  12.2999  12.4105  12.4302  12.4400
    12.6152  12.6157  12.6411  12.9278  12.9935  13.0109  13.1154  13.1579
    13.1747  13.4025  13.5266  13.5747  13.5948  13.6175  13.6318  13.7303
    13.7705  13.9137  13.9241  14.1859  14.2062  14.2829  14.2856  14.2921
    14.2968  14.4468  14.4923

          k = 0.2083 0.2406 0.0000 ( 54996 PWs)   bands (ev):

    -0.2963  -0.0151   0.0346   0.3064   0.5171   0.7753   1.0820   1.3265
     1.5900   1.5993   1.6534   1.7081   1.7753   1.8301   1.8310   1.8822
     1.8926   1.9456   1.9848   1.9973   2.0089   2.0219   2.0383   2.0863
     2.0946   2.0984   2.1130   2.1327   2.1388   2.1597   2.1783   2.1825
     2.2188   2.2191   2.2314   2.2430   2.2450   2.2592   2.3038   2.3195
     2.3319   2.3376   2.3560   2.3700   2.3710   2.4264   2.4394   2.4483
     2.4678   2.4701   2.4759   2.5039   2.5197   2.5291   2.5475   2.5603
     2.5779   2.5928   2.6340   2.6434   2.6454   2.6575   2.6896   2.7050
     2.7105   2.7329   2.7542   2.7749   2.7849   2.7928   2.8136   2.8175
     2.8493   2.8589   2.8852   2.8935   2.9120   2.9372   2.9592   2.9842
     3.0681   3.1050   3.1394   3.1621   3.1924   3.2154   3.2254   3.2886
     3.2907   3.3108   3.3116   3.3179   3.3499   3.3551   3.3841   3.4264
     3.4330   3.4413   3.4639   3.4827   3.5068   3.5072   3.5135   3.5366
     3.5512   3.5737   3.5748   3.5852   3.5922   3.6107   3.6519   3.6647
     3.6650   3.6707   3.6858   3.7032   3.7541   3.7573   3.7580   3.7727
     3.7961   3.8100   3.8140   3.8367   3.8529   3.8614   3.8869   3.9018
     3.9080   3.9102   3.9156   3.9262   3.9370   3.9377   3.9549   3.9724
     4.0156   4.0160   4.0236   4.0256   4.0271   4.0465   4.0552   4.0640
     4.0787   4.0830   4.0923   4.1073   4.1176   4.1386   4.1447   4.1557
     4.1595   4.1816   4.1875   4.1999   4.2015   4.2162   4.2209   4.2248
     4.2363   4.2406   4.2452   4.2576   4.2647   4.2648   4.2693   4.2795
     4.2896   4.2941   4.3101   4.3113   4.3177   4.3243   4.3352   4.3439
     4.3811   4.3901   4.3909   4.4116   4.4132   4.4229   4.4286   4.4388
     4.4443   4.4655   4.4752   4.4815   4.4816   4.5153   4.5483   4.5768
     4.5777   4.5789   4.5828   4.5904   4.5915   4.6013   4.6122   4.6308
     4.6542   4.6545   4.6568   4.6664   4.6745   4.6794   4.6991   4.7092
     4.7210   4.7320   4.7556   4.7613   4.8105   4.8106   4.8123   4.8239
     4.8572   4.8660   4.8813   4.9029   4.9057   4.9127   4.9425   4.9487
     4.9543   4.9778   4.9814   4.9958   5.0015   5.0041   5.0113   5.0270
     5.0296   5.0473   5.0558   5.0797   5.0993   5.1038   5.1108   5.1193
     5.1486   5.1785   5.1880   5.1899   5.1992   5.2401   5.2448   5.2506
     5.2745   5.2746   5.3005   5.3232   5.3608   5.3613   5.3797   5.3901
     5.4086   5.4135   5.4329   5.4398   5.4477   5.4520   5.4581   5.4669
     5.4759   5.4820   5.4929   5.5124   5.5325   5.5351   5.5461   5.5659
     5.5809   5.5893   5.6005   5.6085   5.6187   5.6461   5.6599   5.6702
     5.6704   5.6851   5.6972   5.7384   5.7524   5.7552   5.7627   5.7695
     5.7867   5.8025   5.8086   5.8306   5.8419   5.8442   5.8698   5.8960
     5.8989   5.9033   5.9062   5.9219   5.9412   5.9527   5.9698   5.9794
     5.9922   5.9939   6.0058   6.0071   6.0206   6.0248   6.0396   6.0465
     6.0626   6.0647   6.0751   6.0791   6.0815   6.1019   6.1391   6.1399
     6.1530   6.1704   6.1772   6.1781   6.1854   6.1949   6.1950   6.2032
     6.2041   6.2153   6.2203   6.2222   6.2300   6.2343   6.2438   6.2493
     6.2651   6.2652   6.2978   6.3062   6.3108   6.3309   6.3443   6.3646
     6.3737   6.3789   6.3866   6.3914   6.4052   6.4065   6.4100   6.4173
     6.4305   6.4354   6.4447   6.4545   6.4592   6.4615   6.4799   6.4929
     6.5125   6.5159   6.5164   6.5307   6.5588   6.5634   6.5648   6.5893
     6.6244   6.6391   6.6477   6.6610   6.6866   6.7003   6.7036   6.7101
     6.7129   6.7900   6.8082   6.8303   6.9008   6.9038   7.0369   7.0447
     7.0564   7.1588   7.3105   7.3472   7.3801   7.5687   7.5833   7.6135
     7.6836   7.8962   8.1150   8.2719   8.3436   8.4010   8.5024   8.6556
     8.9270   9.0183   9.0664   9.1224   9.2274   9.4169   9.5026   9.5993
     9.6257   9.6731   9.8455   9.8883   9.8994   9.9212   9.9252  10.0438
    10.1183  10.1418  10.2489  10.4140  10.4616  10.5331  10.5512  10.5841
    10.6278  10.7317  10.8577  11.0368  11.0518  11.0607  11.2437  11.3895
    11.4985  11.5491  11.5827  11.6985  11.8925  11.9460  12.0836  12.0925
    12.1921  12.2855  12.3446  12.3901  12.4528  12.5622  12.5974  12.6903
    12.8316  12.9806  13.0403  13.1130  13.1465  13.2452  13.2769  13.2779
    13.3705  13.3736  13.4833  13.5422  13.6264  13.6399  13.6612  13.7670
    13.8338  13.9447  14.0389  14.0745  14.0908  14.1922  14.2423  14.3198
    14.3728  14.3830  14.4068

          k = 0.2917 0.0481 0.0000 ( 55058 PWs)   bands (ev):

    -0.3679  -0.0349   0.4511   0.9341   1.0200   1.1955   1.3533   1.4556
     1.5408   1.5604   1.5753   1.6084   1.6541   1.7428   1.8361   1.8517
     1.8582   1.9269   1.9356   1.9443   1.9686   1.9865   2.0084   2.0150
     2.0593   2.1028   2.1098   2.1686   2.1985   2.2044   2.2247   2.2446
     2.2804   2.3081   2.3261   2.3319   2.3550   2.3930   2.4285   2.4666
     2.4879   2.5137   2.5203   2.5477   2.5523   2.5643   2.5682   2.5777
     2.5964   2.6211   2.6684   2.6825   2.6990   2.7237   2.7342   2.7667
     2.7748   2.7842   2.7884   2.7957   2.8148   2.8213   2.8468   2.8533
     2.8573   2.8983   2.9033   2.9216   2.9351   2.9424   2.9599   3.0441
     3.0564   3.0638   3.0663   3.0851   3.0968   3.1118   3.1120   3.1291
     3.1539   3.1656   3.1789   3.1882   3.2023   3.2065   3.2336   3.2419
     3.2559   3.2568   3.2802   3.3022   3.3072   3.3251   3.3273   3.3483
     3.3493   3.3797   3.3820   3.3985   3.4155   3.4273   3.4352   3.4415
     3.4532   3.4656   3.4692   3.4791   3.4858   3.5125   3.5136   3.5212
     3.5388   3.5939   3.6199   3.6447   3.6487   3.6674   3.6801   3.6888
     3.6941   3.6944   3.7212   3.7454   3.7657   3.7760   3.8069   3.8189
     3.8233   3.8333   3.8503   3.8527   3.8564   3.8647   3.8653   3.8941
     3.8954   3.8963   3.9091   3.9156   3.9292   3.9348   3.9771   3.9804
     3.9860   3.9985   4.0122   4.0211   4.0242   4.0329   4.0457   4.0516
     4.0604   4.0636   4.0673   4.0903   4.1008   4.1009   4.1094   4.1255
     4.1348   4.1567   4.1586   4.1650   4.1718   4.1818   4.1878   4.1921
     4.1936   4.1967   4.2039   4.2579   4.2606   4.2626   4.2645   4.2652
     4.2758   4.2824   4.3029   4.3265   4.3275   4.3626   4.3719   4.3824
     4.3900   4.4017   4.4111   4.4378   4.4435   4.4577   4.4626   4.4690
     4.4876   4.4957   4.5345   4.5440   4.5612   4.5685   4.5956   4.6095
     4.6159   4.6186   4.6227   4.6694   4.6720   4.6960   4.7176   4.7259
     4.7480   4.7572   4.7629   4.7729   4.7917   4.8210   4.8221   4.8453
     4.8497   4.9044   4.9076   4.9124   4.9279   4.9422   4.9475   4.9634
     4.9719   5.0019   5.0083   5.0090   5.0173   5.0351   5.0356   5.0538
     5.0755   5.0856   5.0935   5.1157   5.1189   5.1205   5.1406   5.1599
     5.1796   5.1815   5.1827   5.1833   5.2002   5.2018   5.2229   5.2243
     5.2262   5.2467   5.2858   5.2985   5.3053   5.3308   5.3322   5.3363
     5.3383   5.3493   5.3570   5.3581   5.3744   5.3915   5.4317   5.4378
     5.4455   5.4535   5.4950   5.5071   5.5216   5.5243   5.5276   5.5355
     5.5502   5.5521   5.5780   5.5815   5.6044   5.6306   5.6351   5.6492
     5.6826   5.6987   5.7127   5.7242   5.7258   5.7352   5.7370   5.7837
     5.7903   5.8209   5.8221   5.8333   5.8409   5.8498   5.8657   5.8764
     5.8925   5.8938   5.9150   5.9183   5.9196   5.9232   5.9365   5.9428
     5.9472   5.9646   5.9673   5.9798   5.9957   5.9962   6.0046   6.0221
     6.0347   6.0443   6.0471   6.0553   6.0594   6.0740   6.0750   6.0938
     6.1052   6.1067   6.1111   6.1119   6.1374   6.1511   6.1531   6.1575
     6.1661   6.1704   6.1782   6.1844   6.1869   6.1947   6.2043   6.2080
     6.2191   6.2250   6.2287   6.2328   6.2373   6.2452   6.2463   6.2551
     6.2553   6.2667   6.2717   6.2811   6.2853   6.2907   6.2971   6.3105
     6.3183   6.3240   6.3326   6.3399   6.3533   6.3594   6.3782   6.4022
     6.4111   6.4341   6.4551   6.4575   6.4640   6.4768   6.4869   6.5110
     6.5187   6.5383   6.5430   6.5513   6.5611   6.5732   6.6053   6.6076
     6.6167   6.6332   6.6518   6.7524   6.8337   6.8435   6.8497   7.0250
     7.0433   7.0694   7.1384   7.3219   7.3902   7.4503   7.5049   7.5592
     7.6752   7.7619   7.7770   8.1871   8.3177   8.3275   8.4070   8.5058
     8.5514   8.9505   9.1543   9.1958   9.2040   9.2745   9.3501   9.4316
     9.5609   9.5967   9.8072  10.0619  10.0887  10.1080  10.1144  10.2361
    10.3164  10.4055  10.4276  10.5700  10.6039  10.6503  10.7539  10.8439
    10.9612  10.9785  10.9989  11.2135  11.2963  11.3199  11.4309  11.5299
    11.5651  11.6562  11.7079  11.7444  11.8667  11.8931  12.1669  12.2111
    12.2806  12.3412  12.3797  12.5295  12.6837  12.6966  12.7821  12.7868
    12.7925  12.9220  12.9952  13.0182  13.0271  13.1707  13.1752  13.2655
    13.3817  13.5638  13.6174  13.6374  13.7550  13.7607  13.8095  13.8821
    13.9286  13.9921  14.0035  14.0991  14.1099  14.2519  14.3128  14.3716
    14.4925  14.6879  14.6921

          k = 0.2917 0.1443 0.0000 ( 55039 PWs)   bands (ev):

    -0.2732   0.0570   0.5326   0.5388   0.8262   1.1033   1.2519   1.4453
     1.5141   1.6203   1.6549   1.7085   1.7532   1.7534   1.8920   1.9078
     1.9131   1.9173   1.9602   1.9790   2.0072   2.0177   2.0273   2.0828
     2.1293   2.1383   2.1448   2.1528   2.1893   2.2043   2.2327   2.3010
     2.3165   2.3280   2.3475   2.3573   2.4182   2.4341   2.4353   2.4510
     2.4609   2.4811   2.5195   2.5225   2.5239   2.5382   2.5407   2.5661
     2.5686   2.5991   2.6023   2.6043   2.6063   2.6252   2.6464   2.6513
     2.6556   2.6854   2.7144   2.7794   2.7948   2.8137   2.8171   2.8213
     2.8252   2.8307   2.8465   2.8670   2.8946   2.9315   2.9347   2.9368
     2.9514   2.9852   3.0257   3.0586   3.0861   3.0897   3.1081   3.1119
     3.1388   3.1637   3.1648   3.2038   3.2289   3.2320   3.2649   3.2685
     3.2905   3.2936   3.3121   3.3384   3.3444   3.3451   3.3705   3.3712
     3.3849   3.4125   3.4266   3.4393   3.4528   3.4560   3.4617   3.4670
     3.5057   3.5107   3.5120   3.5393   3.5479   3.5591   3.5597   3.6049
     3.6277   3.6360   3.6485   3.6588   3.6623   3.6768   3.6833   3.6882
     3.6976   3.7306   3.7372   3.7387   3.7486   3.7527   3.7720   3.7994
     3.8002   3.8402   3.8452   3.8817   3.8833   3.8994   3.9064   3.9116
     3.9281   3.9425   3.9460   3.9834   3.9838   3.9841   3.9866   4.0156
     4.0209   4.0319   4.0505   4.0680   4.0773   4.0803   4.0855   4.1024
     4.1093   4.1228   4.1305   4.1405   4.1424   4.1570   4.1588   4.1627
     4.1959   4.1967   4.2083   4.2176   4.2241   4.2324   4.2449   4.2477
     4.2614   4.2739   4.2765   4.2784   4.2796   4.2985   4.2990   4.3070
     4.3113   4.3150   4.3203   4.3331   4.3445   4.3606   4.3655   4.3745
     4.3776   4.3886   4.3963   4.4474   4.4484   4.4568   4.4712   4.4713
     4.4754   4.5010   4.5325   4.5349   4.5450   4.5579   4.5775   4.5884
     4.6041   4.6110   4.6216   4.6456   4.6811   4.7054   4.7222   4.7246
     4.7456   4.7482   4.7704   4.7768   4.7790   4.7882   4.7892   4.8285
     4.8643   4.8659   4.8761   4.8846   4.8861   4.8900   4.9351   4.9386
     4.9499   4.9598   4.9609   4.9694   4.9780   4.9819   4.9933   5.0012
     5.0205   5.0228   5.0339   5.0605   5.0702   5.0777   5.1159   5.1208
     5.1381   5.1407   5.1418   5.1764   5.1801   5.1883   5.1922   5.2045
     5.2350   5.2364   5.2411   5.2655   5.2784   5.2808   5.2840   5.3083
     5.3147   5.3303   5.3405   5.3509   5.3679   5.3713   5.3907   5.4079
     5.4249   5.4410   5.4762   5.4764   5.4769   5.4834   5.5004   5.5012
     5.5014   5.5482   5.5622   5.5693   5.6042   5.6069   5.6086   5.6378
     5.6396   5.6444   5.6461   5.6785   5.7057   5.7066   5.7250   5.7644
     5.7705   5.7819   5.7931   5.8029   5.8060   5.8061   5.8250   5.8300
     5.8498   5.8640   5.8655   5.8679   5.8726   5.8742   5.8747   5.9028
     5.9343   5.9469   5.9603   5.9628   5.9906   6.0006   6.0151   6.0247
     6.0373   6.0388   6.0401   6.0551   6.0700   6.0712   6.0794   6.0844
     6.0973   6.0977   6.1137   6.1142   6.1175   6.1277   6.1390   6.1583
     6.1586   6.1674   6.1731   6.1742   6.1873   6.2028   6.2082   6.2199
     6.2305   6.2332   6.2468   6.2486   6.2507   6.2604   6.2657   6.2728
     6.2729   6.2772   6.2790   6.2850   6.2878   6.2932   6.3086   6.3212
     6.3269   6.3431   6.3594   6.3653   6.3889   6.3937   6.3985   6.4058
     6.4064   6.4320   6.4492   6.4511   6.4819   6.4914   6.5060   6.5127
     6.5223   6.5433   6.5534   6.5659   6.5660   6.5898   6.6062   6.6200
     6.6325   6.6381   6.6434   6.6859   6.6893   6.7298   6.9245   6.9248
     7.0479   7.0654   7.2741   7.4939   7.5484   7.7308   7.7764   7.8008
     7.9453   7.9758   8.1508   8.2576   8.2736   8.2895   8.3698   8.5301
     8.5464   8.5881   8.6314   8.8934   9.1129   9.1192   9.2910   9.3417
     9.6031   9.6247   9.7717   9.8273   9.8986  10.0792  10.1321  10.2287
    10.2450  10.2738  10.5216  10.6217  10.7043  10.7222  10.7304  10.8691
    11.0464  11.1560  11.2132  11.2897  11.2953  11.3936  11.4103  11.4934
    11.5979  11.6754  11.8269  11.8562  11.8663  11.9338  11.9900  12.2275
    12.2621  12.3668  12.3864  12.4261  12.4967  12.6324  12.8159  12.8851
    12.9059  12.9942  13.0534  13.0566  13.1393  13.3113  13.3797  13.4297
    13.4739  13.5617  13.6657  13.7754  13.7840  13.8454  13.9314  13.9659
    13.9693  14.0722  14.1193  14.2734  14.2918  14.3065  14.3924  14.4482
    14.4581  14.6404  14.6491

          k = 0.2917 0.2406 0.0000 ( 55053 PWs)   bands (ev):

    -0.0866   0.1858   0.2374   0.4985   0.7099   0.9540   1.2645   1.4409
     1.4600   1.4903   1.6634   1.6925   1.7736   1.8937   1.9118   1.9302
     1.9509   1.9845   2.0384   2.0467   2.1078   2.1107   2.1115   2.1414
     2.1657   2.1858   2.1977   2.2007   2.2151   2.2357   2.2487   2.2931
     2.3161   2.3181   2.3263   2.3328   2.3628   2.3654   2.3756   2.3856
     2.4307   2.4338   2.4620   2.4671   2.4852   2.5089   2.5097   2.5372
     2.5513   2.5628   2.5868   2.5916   2.5992   2.6208   2.6454   2.6637
     2.6784   2.6825   2.6916   2.7284   2.7309   2.7644   2.7659   2.7660
     2.7812   2.8203   2.8367   2.8680   2.8721   2.8938   2.8950   2.9182
     2.9233   2.9538   2.9795   2.9893   2.9985   3.0498   3.0778   3.0835
     3.1143   3.1696   3.1773   3.1929   3.1967   3.2461   3.2507   3.2641
     3.2821   3.2914   3.3062   3.3229   3.3322   3.3421   3.3686   3.4056
     3.4119   3.4541   3.4595   3.4750   3.4862   3.4863   3.4880   3.5107
     3.5186   3.5224   3.5508   3.5661   3.5823   3.5853   3.5860   3.5953
     3.6085   3.6240   3.6441   3.6613   3.6743   3.6952   3.6991   3.7273
     3.7444   3.7467   3.7602   3.8141   3.8196   3.8360   3.8494   3.8576
     3.8904   3.8915   3.8922   3.8975   3.9201   3.9215   3.9387   3.9649
     3.9710   3.9944   3.9944   4.0214   4.0352   4.0369   4.0445   4.0531
     4.0547   4.0663   4.0703   4.0853   4.0917   4.1067   4.1084   4.1252
     4.1355   4.1358   4.1385   4.1724   4.1753   4.1855   4.1952   4.2118
     4.2250   4.2320   4.2338   4.2467   4.2530   4.2620   4.2644   4.2796
     4.2897   4.2897   4.3137   4.3138   4.3321   4.3392   4.3408   4.3499
     4.3582   4.3693   4.3780   4.3813   4.3985   4.4065   4.4095   4.4364
     4.4400   4.4469   4.4493   4.4591   4.4716   4.5035   4.5197   4.5280
     4.5361   4.5543   4.5638   4.5806   4.5843   4.5867   4.5951   4.6079
     4.6095   4.6279   4.6327   4.6436   4.6457   4.6645   4.6741   4.6842
     4.6880   4.7018   4.7020   4.7120   4.7154   4.7319   4.7355   4.7529
     4.7757   4.7843   4.7950   4.8115   4.8157   4.8460   4.8615   4.8701
     4.8792   4.8835   4.8953   4.9264   4.9505   4.9568   4.9600   4.9688
     4.9824   5.0013   5.0078   5.0128   5.0314   5.0385   5.0689   5.0744
     5.0996   5.1176   5.1237   5.1379   5.1399   5.1423   5.1920   5.1934
     5.2005   5.2364   5.2511   5.2562   5.2674   5.2733   5.2742   5.3282
     5.3488   5.3517   5.3590   5.3631   5.3689   5.3695   5.3938   5.4212
     5.4300   5.4353   5.4443   5.4746   5.4757   5.4834   5.4862   5.4968
     5.5077   5.5277   5.5319   5.5351   5.5619   5.5666   5.5752   5.5824
     5.5880   5.6163   5.6234   5.6323   5.6587   5.6668   5.6729   5.6741
     5.6833   5.6846   5.7018   5.7038   5.7510   5.7619   5.7682   5.7792
     5.7851   5.7939   5.8157   5.8218   5.8262   5.8336   5.8400   5.8487
     5.8632   5.8634   5.8667   5.8957   5.9248   5.9261   5.9513   5.9725
     5.9807   5.9827   6.0351   6.0404   6.0440   6.0447   6.0592   6.0743
     6.0783   6.0987   6.1183   6.1249   6.1334   6.1457   6.1502   6.1532
     6.1662   6.1744   6.1850   6.1851   6.1851   6.2037   6.2163   6.2165
     6.2170   6.2222   6.2271   6.2343   6.2433   6.2501   6.2574   6.2657
     6.2751   6.2811   6.2943   6.2992   6.3218   6.3317   6.3324   6.3391
     6.3450   6.3680   6.3790   6.3867   6.4064   6.4064   6.4119   6.4447
     6.4485   6.4572   6.4768   6.4815   6.5001   6.5279   6.5280   6.5320
     6.5519   6.5560   6.5596   6.5711   6.5798   6.6252   6.6372   6.6463
     6.6611   6.6883   6.7073   6.7859   6.9632   7.0526   7.0719   7.0725
     7.1245   7.1977   7.2156   7.4952   7.6056   7.6510   7.6810   7.8155
     7.8625   7.8906   7.9145   8.2540   8.4280   8.4911   8.5654   8.5743
     8.5797   8.7092   8.7554   8.9833   9.0192   9.1775   9.3042   9.3184
     9.4021   9.4512   9.6120   9.7537   9.8262   9.9025   9.9147  10.1069
    10.2202  10.2961  10.4217  10.4931  10.5536  10.7647  10.8097  10.8739
    11.0010  11.0828  11.1013  11.1538  11.2808  11.2939  11.2965  11.4191
    11.5453  11.7826  11.8597  12.0280  12.1211  12.1903  12.3049  12.3495
    12.3904  12.4784  12.4983  12.6506  12.6589  12.7769  12.8747  12.9366
    12.9768  13.0762  13.1663  13.1674  13.2626  13.3195  13.4158  13.5244
    13.5368  13.7074  13.7485  13.7665  13.8268  13.9554  13.9637  14.0431
    14.1423  14.2053  14.2494  14.3747  14.3759  14.4867  14.5284  14.5519
    14.5901  14.6826  14.7056

          k = 0.3750 0.0481 0.0000 ( 55067 PWs)   bands (ev):

    -0.0846   0.2400   0.7140   1.0432   1.1486   1.2720   1.2944   1.3873
     1.5597   1.5862   1.6525   1.7201   1.7421   1.7842   1.7875   1.8189
     1.9844   2.0166   2.0457   2.0639   2.0745   2.1065   2.1176   2.1585
     2.1598   2.1606   2.1813   2.2210   2.2484   2.2685   2.2787   2.3424
     2.3865   2.4082   2.4493   2.4521   2.4581   2.4967   2.5078   2.5234
     2.5874   2.5949   2.5971   2.5987   2.6203   2.6394   2.6680   2.6956
     2.7210   2.7223   2.7239   2.7324   2.7397   2.7627   2.7890   2.7938
     2.8032   2.8652   2.8653   2.8673   2.8858   2.8997   2.9061   2.9230
     2.9331   2.9373   2.9516   2.9524   2.9917   2.9947   3.0087   3.0233
     3.0252   3.0442   3.0849   3.1099   3.1114   3.1270   3.1437   3.1681
     3.1692   3.1791   3.1889   3.1942   3.2295   3.2308   3.2328   3.2437
     3.2545   3.2595   3.2838   3.2873   3.2959   3.3046   3.3240   3.3245
     3.3289   3.3481   3.3630   3.3796   3.3834   3.3984   3.4114   3.4146
     3.4517   3.4520   3.4593   3.4712   3.4806   3.4893   3.5049   3.5224
     3.5335   3.5488   3.5777   3.5964   3.5999   3.6111   3.6514   3.6613
     3.6688   3.6839   3.6933   3.7052   3.7102   3.7162   3.7228   3.7752
     3.8099   3.8315   3.8376   3.8416   3.8471   3.8619   3.8622   3.8637
     3.8813   3.8854   3.9089   3.9339   3.9346   3.9348   3.9533   3.9581
     3.9743   3.9758   3.9930   4.0021   4.0117   4.0333   4.0340   4.0459
     4.0521   4.0544   4.0563   4.0808   4.0815   4.0962   4.0973   4.1063
     4.1106   4.1259   4.1322   4.1486   4.1558   4.1753   4.1861   4.1978
     4.2022   4.2038   4.2121   4.2203   4.2585   4.2722   4.2909   4.2964
     4.2967   4.2984   4.3330   4.3409   4.3422   4.3455   4.3579   4.3788
     4.3870   4.4072   4.4217   4.4275   4.4400   4.4498   4.4510   4.4529
     4.4901   4.4994   4.5131   4.5340   4.5554   4.5610   4.5976   4.6016
     4.6045   4.6208   4.6296   4.6364   4.6469   4.6525   4.6568   4.6795
     4.6797   4.6878   4.7162   4.7168   4.7304   4.7570   4.7614   4.7936
     4.7960   4.8001   4.8322   4.8684   4.8998   4.9236   4.9255   4.9365
     4.9394   4.9535   4.9556   4.9594   4.9631   4.9785   5.0019   5.0069
     5.0097   5.0269   5.0296   5.0610   5.0615   5.0624   5.0759   5.0781
     5.1055   5.1085   5.1361   5.1588   5.1607   5.1699   5.1785   5.1986
     5.2096   5.2168   5.2258   5.2320   5.2499   5.2579   5.2593   5.2646
     5.2734   5.2992   5.3292   5.3344   5.3386   5.3530   5.3734   5.3776
     5.3968   5.4210   5.4284   5.4286   5.4431   5.4740   5.5020   5.5062
     5.5147   5.5326   5.5438   5.5579   5.5664   5.5818   5.5876   5.5883
     5.5884   5.6050   5.6052   5.6464   5.6577   5.6592   5.6681   5.6830
     5.7009   5.7051   5.7091   5.7092   5.7298   5.7328   5.7333   5.7562
     5.7639   5.7912   5.8047   5.8067   5.8365   5.8485   5.8937   5.8944
     5.9056   5.9092   5.9234   5.9291   5.9371   5.9463   5.9534   5.9658
     5.9713   5.9811   5.9937   5.9955   5.9984   6.0273   6.0447   6.0454
     6.0553   6.0588   6.0651   6.0671   6.0851   6.0909   6.1019   6.1022
     6.1100   6.1130   6.1186   6.1402   6.1454   6.1465   6.1497   6.1585
     6.1735   6.1742   6.1876   6.1892   6.1927   6.1986   6.2010   6.2043
     6.2058   6.2155   6.2269   6.2300   6.2434   6.2471   6.2515   6.2741
     6.2819   6.2969   6.3020   6.3195   6.3198   6.3242   6.3369   6.3377
     6.3414   6.3525   6.3832   6.3984   6.4279   6.4375   6.4443   6.4444
     6.4675   6.4763   6.4813   6.4967   6.5003   6.5419   6.5517   6.5625
     6.5973   6.6063   6.6177   6.6195   6.6487   6.7403   6.7660   6.9106
     7.0282   7.0356   7.0980   7.1077   7.1110   7.2480   7.3598   7.4694
     7.7231   7.7555   7.7938   7.9448   8.0550   8.2670   8.5445   8.5654
     8.6216   8.7745   8.8096   9.2502   9.2767   9.4289   9.5098   9.5954
     9.6425   9.6724   9.8009   9.9117  10.1949  10.2084  10.3044  10.3818
    10.4573  10.5649  10.5683  10.5810  10.6072  10.6579  10.6672  10.9100
    10.9661  11.0597  11.1384  11.2196  11.2813  11.3056  11.4245  11.5624
    11.5725  11.5770  11.8827  12.0165  12.0316  12.1813  12.2921  12.3728
    12.4710  12.5364  12.6540  12.7613  12.7966  12.9504  13.0298  13.0913
    13.1358  13.1713  13.1745  13.2721  13.3991  13.4150  13.5094  13.5855
    13.5985  13.7310  13.8514  13.8723  13.8968  13.9946  14.0614  14.1345
    14.1415  14.1709  14.2964  14.3048  14.3861  14.4285  14.5276  14.5540
    14.5571  14.6046  14.8936

          k = 0.3750 0.1443 0.0000 ( 55097 PWs)   bands (ev):

     0.0044   0.3250   0.7649   0.7925   1.0402   1.0802   1.3258   1.3421
     1.4110   1.4343   1.6408   1.6658   1.8476   1.8861   1.8930   1.9332
     1.9967   2.0400   2.0445   2.0490   2.1097   2.1636   2.1800   2.1981
     2.2131   2.2222   2.2322   2.2387   2.2536   2.3215   2.3723   2.3757
     2.3834   2.3942   2.4171   2.4660   2.4678   2.4960   2.5112   2.5288
     2.5442   2.5600   2.5709   2.5932   2.6087   2.6277   2.6333   2.6571
     2.6865   2.6872   2.6938   2.6985   2.7138   2.7331   2.7414   2.7476
     2.7636   2.8054   2.8088   2.8104   2.8461   2.8546   2.8814   2.9026
     2.9241   2.9284   2.9395   2.9424   2.9486   2.9533   2.9571   2.9807
     3.0350   3.0614   3.0715   3.1121   3.1220   3.1266   3.1646   3.1754
     3.1934   3.2017   3.2081   3.2243   3.2349   3.2639   3.2743   3.2754
     3.2780   3.2909   3.2916   3.3120   3.3143   3.3201   3.3233   3.3269
     3.3510   3.3760   3.3939   3.3961   3.4242   3.4607   3.4610   3.4657
     3.4970   3.5010   3.5143   3.5233   3.5331   3.5377   3.5479   3.5582
     3.5745   3.5792   3.5924   3.5949   3.6157   3.6270   3.6323   3.6425
     3.6456   3.7011   3.7019   3.7046   3.7157   3.7411   3.7502   3.7746
     3.8005   3.8070   3.8460   3.8546   3.8781   3.8986   3.8989   3.9004
     3.9095   3.9143   3.9196   3.9454   3.9649   3.9697   3.9866   3.9930
     3.9930   4.0006   4.0213   4.0256   4.0472   4.0535   4.0611   4.0654
     4.0696   4.0747   4.1134   4.1229   4.1281   4.1353   4.1464   4.1533
     4.1733   4.1817   4.1915   4.1946   4.2021   4.2059   4.2135   4.2241
[...]
     4.9107   4.9275   4.9353   4.9413   4.9564   4.9620   4.9724   4.9730
     4.9837   4.9989   5.0193   5.0299   5.0377   5.0465   5.0565   5.0632
     5.0696   5.0882   5.1354   5.1385   5.1419   5.1520   5.1604   5.1817
     5.1929   5.2011   5.2160   5.2245   5.2317   5.2383   5.2386   5.2497
     5.2622   5.2650   5.2689   5.2855   5.2874   5.2994   5.3199   5.3220
     5.3521   5.3539   5.3790   5.3898   5.4063   5.4141   5.4168   5.4189
     5.4241   5.4505   5.4523   5.4535   5.4784   5.4896   5.5110   5.5351
     5.5428   5.5471   5.5558   5.5768   5.5768   5.6002   5.6226   5.6272
     5.6569   5.6592   5.6606   5.6751   5.6761   5.6971   5.6998   5.7093
     5.7105   5.7247   5.7288   5.7472   5.7608   5.8050   5.8076   5.8214
     5.8242   5.8547   5.8651   5.8668   5.8824   5.8890   5.8964   5.9166
     5.9396   5.9406   5.9427   5.9575   5.9592   5.9807   5.9825   5.9955
     5.9987   6.0111   6.0283   6.0516   6.0529   6.0659   6.0668   6.0703
     6.0725   6.0858   6.0971   6.1009   6.1083   6.1223   6.1293   6.1426
     6.1520   6.1544   6.1623   6.1675   6.1698   6.1782   6.1961   6.2138
     6.2142   6.2209   6.2212   6.2349   6.2390   6.2597   6.2742   6.2767
     6.2826   6.2839   6.2945   6.3192   6.3228   6.3286   6.3460   6.3473
     6.3745   6.3752   6.3796   6.3880   6.3962   6.4044   6.4056   6.4092
     6.4346   6.4633   6.4700   6.4868   6.5194   6.5290   6.5607   6.5809
     6.5845   6.5918   6.5940   6.6048   6.6690   6.7171   6.7855   6.7994
     6.8275   6.8684   6.9979   7.0630   7.1345   7.2656   7.3380   7.3797
     7.6221   7.6911   7.8920   8.0545   8.0608   8.0795   8.4062   8.4153
     8.7454   8.9185   8.9281   8.9784   9.2564   9.2891   9.5703   9.6860
     9.8606   9.8719   9.8790   9.9776  10.0901  10.2000  10.2071  10.3143
    10.3642  10.4599  10.6743  10.7058  10.7284  10.7897  10.8918  10.9389
    10.9854  11.0333  11.1307  11.2359  11.2425  11.2824  11.5722  11.6063
    11.7216  11.7566  11.8985  11.9044  12.2161  12.2255  12.3720  12.4558
    12.5406  12.6017  12.7296  12.7434  12.8885  13.0227  13.0518  13.0807
    13.1577  13.2149  13.3231  13.3387  13.4646  13.4682  13.5776  13.8357
    13.8428  13.8816  13.8881  13.9141  14.1442  14.1703  14.2823  14.4029
    14.4101  14.5043  14.5544  14.6909  14.7348  14.8455  14.8644  14.9128
    14.9222  14.9373  15.0197

          k = 0.4583 0.1443 0.0000 ( 55107 PWs)   bands (ev):

     0.3333   0.6380   0.6988   0.9788   1.0132   1.0804   1.2411   1.2640
     1.3800   1.4720   1.6002   1.6100   1.7608   1.8465   1.9945   2.0412
     2.0651   2.0787   2.0843   2.1754   2.2537   2.2539   2.2715   2.2722
     2.2974   2.3061   2.3272   2.3591   2.3683   2.4028   2.4253   2.4336
     2.4504   2.4614   2.4715   2.4807   2.4997   2.5020   2.5440   2.5455
     2.5733   2.5949   2.5974   2.6220   2.6594   2.6747   2.6772   2.6811
     2.6945   2.7227   2.7599   2.7748   2.7762   2.7802   2.7973   2.8074
     2.8115   2.8326   2.8378   2.8538   2.8596   2.8697   2.8874   2.9300
     2.9323   2.9383   2.9463   2.9790   2.9961   3.0143   3.0356   3.0692
     3.0796   3.0824   3.0844   3.1258   3.1369   3.1604   3.1783   3.1825
     3.2007   3.2246   3.2394   3.2422   3.2676   3.2740   3.2742   3.2746
     3.3072   3.3116   3.3144   3.3282   3.3344   3.3392   3.3603   3.3674
     3.3840   3.3846   3.4120   3.4218   3.4238   3.4348   3.4608   3.4617
     3.4700   3.4764   3.4793   3.4960   3.5088   3.5316   3.5336   3.5474
     3.5512   3.5557   3.5685   3.5878   3.6222   3.6230   3.6273   3.6413
     3.6611   3.6750   3.6915   3.6998   3.7079   3.7385   3.7512   3.7627
     3.7708   3.7795   3.8157   3.8160   3.8362   3.8388   3.8536   3.8624
     3.8701   3.8763   3.8974   3.9149   3.9443   3.9453   3.9552   3.9591
     3.9938   3.9948   3.9988   4.0082   4.0248   4.0266   4.0548   4.0723
     4.0728   4.0820   4.1114   4.1158   4.1352   4.1402   4.1455   4.1463
     4.1517   4.1608   4.1688   4.1762   4.1854   4.1981   4.2031   4.2063
     4.2131   4.2165   4.2229   4.2262   4.2290   4.2327   4.2458   4.2464
     4.2670   4.2764   4.2777   4.2880   4.2985   4.2987   4.3106   4.3179
     4.3305   4.3689   4.3701   4.3805   4.3806   4.3888   4.4333   4.4538
     4.4643   4.4660   4.4720   4.4882   4.4946   4.5213   4.5235   4.5756
     4.5985   4.6015   4.6137   4.6409   4.6536   4.6546   4.6601   4.6771
     4.6839   4.6985   4.7063   4.7097   4.7195   4.7419   4.7590   4.7698
     4.7758   4.8298   4.8451   4.8509   4.8596   4.8665   4.8750   4.8758
     4.8995   4.9086   4.9257   4.9276   4.9486   4.9633   4.9656   4.9865
     4.9893   4.9925   5.0061   5.0081   5.0293   5.0355   5.0419   5.0659
     5.0720   5.0993   5.1151   5.1158   5.1304   5.1464   5.1483   5.1489
     5.1584   5.1942   5.1954   5.2024   5.2107   5.2237   5.2265   5.2341
     5.2419   5.2458   5.2524   5.2610   5.2834   5.2913   5.3125   5.3205
     5.3244   5.3284   5.3305   5.3402   5.3554   5.3615   5.3869   5.4083
     5.4122   5.4193   5.4259   5.4270   5.4287   5.4376   5.4491   5.4772
     5.4823   5.4959   5.5098   5.5211   5.5356   5.5458   5.5524   5.5848
     5.5929   5.5985   5.6083   5.6217   5.6319   5.6325   5.6366   5.6381
     5.6649   5.6743   5.6912   5.6937   5.6943   5.7056   5.7216   5.7356
     5.7451   5.7456   5.7682   5.7722   5.7737   5.7857   5.7968   5.8191
     5.8218   5.8357   5.8690   5.8719   5.9139   5.9256   5.9280   5.9437
     5.9464   5.9477   5.9556   5.9749   5.9822   5.9822   6.0103   6.0164
     6.0247   6.0275   6.0328   6.0715   6.0918   6.1038   6.1080   6.1130
     6.1344   6.1453   6.1596   6.1622   6.1764   6.1902   6.2048   6.2051
     6.2052   6.2080   6.2163   6.2564   6.2600   6.2751   6.2817   6.2832
     6.2864   6.2970   6.2972   6.3196   6.3426   6.3543   6.3648   6.3789
     6.3891   6.3946   6.4002   6.4471   6.4537   6.4601   6.4614   6.4891
     6.4933   6.4983   6.5168   6.5402   6.5433   6.5994   6.6070   6.6191
     6.6298   6.6425   6.7425   6.8480   6.8542   6.9993   7.0642   7.0847
     7.1195   7.2421   7.3240   7.3245   7.3415   7.4301   7.5135   7.5805
     7.7312   7.8221   8.0153   8.1140   8.2148   8.2561   8.4529   8.5500
     8.7954   8.8001   8.9361   9.0778   9.0922   9.1198   9.1200   9.2793
     9.4350   9.4446   9.4482   9.6589   9.8412   9.9826  10.0122  10.1378
    10.1754  10.4072  10.4494  10.4915  10.6180  10.7170  10.9127  11.1102
    11.2247  11.3090  11.3203  11.4991  11.5990  11.6359  11.7603  11.7672
    11.8740  12.0288  12.0817  12.1877  12.2589  12.3868  12.4923  12.5808
    12.6147  12.7647  12.7787  12.9112  12.9158  13.0214  13.1303  13.1927
    13.2288  13.2738  13.3033  13.4209  13.4525  13.6118  13.6770  13.7415
    13.7509  13.8643  14.0060  14.0382  14.1163  14.1444  14.1999  14.2522
    14.3431  14.4552  14.4663  14.6086  14.6246  14.6716  14.7223  14.7736
    14.8781  14.8908  15.0179

          k = 0.4583 0.2406 0.0000 ( 55107 PWs)   bands (ev):

     0.4901   0.7196   0.7834   0.8245   0.9952   1.0080   1.0910   1.2051
     1.2570   1.3854   1.4638   1.5912   1.6939   1.8291   1.8814   1.9455
     2.1292   2.2126   2.2303   2.2343   2.2907   2.3020   2.3255   2.3295
     2.3450   2.3581   2.3766   2.3992   2.4064   2.4123   2.4231   2.4264
     2.4283   2.4604   2.4839   2.4858   2.5136   2.5377   2.5648   2.5758
     2.5801   2.5881   2.5983   2.5986   2.6208   2.6352   2.6615   2.6943
     2.7150   2.7167   2.7268   2.7430   2.7451   2.7602   2.7758   2.7810
     2.8067   2.8148   2.8345   2.8372   2.8556   2.8596   2.8610   2.9118
     2.9197   2.9374   2.9569   3.0113   3.0221   3.0566   3.0677   3.0805
     3.0828   3.0852   3.1110   3.1308   3.1431   3.1803   3.1966   3.1989
     3.2090   3.2124   3.2234   3.2250   3.2284   3.2630   3.2675   3.3167
     3.3246   3.3292   3.3476   3.3607   3.3733   3.3733   3.3759   3.4097
     3.4139   3.4348   3.4389   3.4390   3.4644   3.4733   3.4749   3.4861
     3.4963   3.5063   3.5151   3.5187   3.5383   3.5390   3.5580   3.5710
     3.5765   3.5921   3.5983   3.6017   3.6211   3.6245   3.6253   3.6260
     3.6621   3.6934   3.6962   3.7152   3.7190   3.7210   3.7305   3.7344
     3.7459   3.7770   3.7905   3.8108   3.8253   3.8494   3.8557   3.8752
     3.9044   3.9166   3.9226   3.9246   3.9308   3.9785   3.9924   4.0057
     4.0126   4.0284   4.0392   4.0393   4.0686   4.0858   4.0913   4.0969
     4.0979   4.1142   4.1203   4.1297   4.1352   4.1425   4.1625   4.1640
     4.1650   4.1711   4.1783   4.1812   4.1972   4.1988   4.1995   4.1999
     4.2102   4.2142   4.2187   4.2309   4.2317   4.2319   4.2374   4.2389
     4.2503   4.2580   4.2679   4.2785   4.2827   4.3154   4.3281   4.3447
     4.3561   4.3626   4.3720   4.3895   4.4066   4.4267   4.4296   4.4345
     4.4626   4.4631   4.4843   4.4912   4.5225   4.5407   4.5500   4.5661
     4.5771   4.5909   4.6079   4.6397   4.6476   4.6522   4.6669   4.6845
     4.6860   4.6992   4.7037   4.7447   4.7457   4.7650   4.7790   4.7974
     4.8059   4.8114   4.8235   4.8282   4.8301   4.8586   4.8723   4.8739
     4.8800   4.8860   4.8884   4.8946   4.9185   4.9464   4.9535   4.9648
     4.9813   4.9913   4.9931   5.0146   5.0229   5.0342   5.0424   5.0587
     5.0607   5.0734   5.0784   5.0865   5.1212   5.1336   5.1353   5.1487
     5.1513   5.1554   5.1612   5.1618   5.1854   5.1902   5.1909   5.2044
     5.2071   5.2221   5.2285   5.2321   5.2392   5.2425   5.2462   5.2586
     5.2646   5.2835   5.2887   5.3120   5.3162   5.3274   5.3311   5.3447
     5.3556   5.3762   5.3809   5.3952   5.3952   5.3988   5.4131   5.4319
     5.4342   5.4461   5.4562   5.4576   5.4593   5.4743   5.4746   5.4950
     5.5089   5.5186   5.5322   5.5360   5.5554   5.5644   5.5679   5.5771
     5.5937   5.6046   5.6217   5.6450   5.6453   5.6472   5.6581   5.6788
     5.6857   5.7122   5.7297   5.7429   5.7493   5.7627   5.7692   5.7724
     5.7764   5.7980   5.8071   5.8106   5.8326   5.8581   5.8598   5.8763
     5.9021   5.9106   5.9463   5.9468   5.9580   5.9630   5.9686   5.9772
     6.0528   6.0562   6.0730   6.0733   6.0888   6.1070   6.1075   6.1081
     6.1227   6.1392   6.1400   6.1500   6.1574   6.1652   6.1818   6.1857
     6.2138   6.2189   6.2334   6.2468   6.2976   6.3310   6.3375   6.3454
     6.3622   6.3650   6.3764   6.3833   6.3851   6.3866   6.3943   6.4091
     6.4163   6.4484   6.4527   6.4780   6.4780   6.4784   6.5015   6.5173
     6.5364   6.5466   6.5481   6.5652   6.6059   6.6346   6.6370   6.6372
     6.6817   6.6917   6.6970   6.7463   6.9340   7.0626   7.1469   7.2576
     7.5254   7.5293   7.5833   7.6862   7.8061   7.8155   7.8494   7.8704
     8.0012   8.1133   8.1925   8.2137   8.2981   8.3494   8.4064   8.4240
     8.5150   8.6486   8.6488   8.6701   8.7882   8.9665   9.0637   9.1464
     9.2312   9.2985   9.3146   9.4963   9.5762   9.6973   9.8241  10.0040
    10.2244  10.2644  10.2982  10.3937  10.5521  10.5645  10.6809  10.9349
    11.0862  11.2965  11.4509  11.5488  11.6655  11.8310  11.9311  12.0006
    12.0633  12.2786  12.3150  12.3561  12.7415  12.7791  12.8734  12.8934
    12.9051  13.0224  13.0937  13.1006  13.1795  13.2271  13.2491  13.2591
    13.2945  13.3789  13.4404  13.4714  13.5038  13.5235  13.7598  13.7658
    13.8141  13.9331  13.9337  13.9393  14.0244  14.0486  14.0697  14.1267
    14.1607  14.2310  14.2430  14.3214  14.3738  14.4007  14.4228  14.5569
    14.6065  14.7683  14.8796

     the Fermi energy is     8.2691 ev

!    total energy              =   -7346.35669890 Ry
     estimated scf accuracy    <       0.00000032 Ry
     smearing contrib. (-TS)   =       0.09477400 Ry
     internal energy E=F+TS    =   -7346.45147291 Ry

     The total energy is F=E-TS. E is the sum of the following terms:
     one-electron contribution =  -33899.19291457 Ry
     hartree contribution      =   17698.31769995 Ry
     xc contribution           =   -3551.00827094 Ry
     ewald contribution        =   12405.43201265 Ry

     convergence has been achieved in  21 iterations

     negative rho (up, down):  1.957E+00 0.000E+00

     Forces acting on atoms (cartesian axes, Ry/au):

     atom    1 type  1   force =     0.00000000   -0.00165317    0.02677480
     atom    2 type  1   force =     0.00000000   -0.00165424    0.02677502
     atom    3 type  1   force =     0.00000000   -0.00165406    0.02677476
     atom    4 type  1   force =     0.00000000   -0.00165393    0.02677606
     atom    5 type  1   force =    -0.00000018    0.00337817   -0.01650128
     atom    6 type  1   force =     0.00000018    0.00337817   -0.01650128
     atom    7 type  1   force =    -0.00000004    0.00337820   -0.01650156
     atom    8 type  1   force =     0.00000004    0.00337820   -0.01650156
     atom    9 type  1   force =     0.00000000   -0.00162468   -0.00960038
     atom   10 type  1   force =     0.00000000   -0.00162404   -0.00960045
     atom   11 type  1   force =     0.00000000   -0.00162518   -0.00960039
     atom   12 type  1   force =     0.00000000   -0.00162382   -0.00960043
     atom   13 type  1   force =     0.00000000    0.00056318   -0.00384033
     atom   14 type  1   force =     0.00000000    0.00056345   -0.00384056
     atom   15 type  1   force =    -0.00000005   -0.00053590    0.00459344
     atom   16 type  1   force =     0.00000005   -0.00053590    0.00459344
     atom   17 type  1   force =     0.00000000    0.00056332   -0.00384044
     atom   18 type  1   force =     0.00000000    0.00056317   -0.00384049
     atom   19 type  1   force =    -0.00000004   -0.00053574    0.00459334
     atom   20 type  1   force =     0.00000004   -0.00053574    0.00459334
     atom   21 type  1   force =     0.00000000    0.00028191   -0.00073973
     atom   22 type  1   force =     0.00000000    0.00028180   -0.00073939
     atom   23 type  1   force =    -0.00000002   -0.00044609   -0.00050676
     atom   24 type  1   force =     0.00000000    0.00028182   -0.00073943
     atom   25 type  1   force =     0.00000002   -0.00044611   -0.00050683
     atom   26 type  1   force =     0.00000002   -0.00044609   -0.00050676
     atom   27 type  1   force =    -0.00000002   -0.00044611   -0.00050683
     atom   28 type  1   force =     0.00000000    0.00028178   -0.00073930
     atom   29 type  1   force =     0.00000001   -0.00018392    0.00040087
     atom   30 type  1   force =     0.00000000    0.00019481   -0.00056143
     atom   31 type  1   force =     0.00000002   -0.00018388    0.00040090
     atom   32 type  1   force =    -0.00000002   -0.00018388    0.00040090
     atom   33 type  1   force =    -0.00000001   -0.00018392    0.00040087
     atom   34 type  1   force =     0.00000000    0.00019493   -0.00056141
     atom   35 type  1   force =     0.00000000    0.00019505   -0.00056140
     atom   36 type  1   force =     0.00000000    0.00019500   -0.00056137
     atom   37 type  1   force =     0.00000000    0.00018572   -0.00040407
     atom   38 type  1   force =     0.00000000    0.00018556   -0.00040391
     atom   39 type  1   force =    -0.00000003   -0.00019426    0.00056030
     atom   40 type  1   force =     0.00000003   -0.00019426    0.00056030
     atom   41 type  1   force =     0.00000009   -0.00019435    0.00056021
     atom   42 type  1   force =     0.00000000    0.00018545   -0.00040386
     atom   43 type  1   force =     0.00000000    0.00018554   -0.00040390
     atom   44 type  1   force =    -0.00000009   -0.00019435    0.00056021
     atom   45 type  1   force =     0.00000000    0.00044665    0.00051150
     atom   46 type  1   force =     0.00000000    0.00044662    0.00051147
     atom   47 type  1   force =     0.00000000    0.00044666    0.00051151
     atom   48 type  1   force =     0.00000000    0.00044667    0.00051153
     atom   49 type  1   force =     0.00000002   -0.00028110    0.00074170
     atom   50 type  1   force =    -0.00000002   -0.00028110    0.00074170
     atom   51 type  1   force =     0.00000007   -0.00028113    0.00074156
     atom   52 type  1   force =    -0.00000007   -0.00028113    0.00074156
     atom   53 type  1   force =     0.00000000    0.00053677   -0.00459808
     atom   54 type  1   force =    -0.00000002   -0.00056266    0.00383266
     atom   55 type  1   force =    -0.00000005   -0.00056269    0.00383259
     atom   56 type  1   force =     0.00000002   -0.00056266    0.00383266
     atom   57 type  1   force =     0.00000005   -0.00056269    0.00383259
     atom   58 type  1   force =     0.00000000    0.00053674   -0.00459811
     atom   59 type  1   force =     0.00000000    0.00053685   -0.00459821
     atom   60 type  1   force =     0.00000000    0.00053665   -0.00459816
     atom   61 type  1   force =    -0.00000000    0.00162246    0.00959892
     atom   62 type  1   force =     0.00000000   -0.00337681    0.01649872
     atom   63 type  1   force =     0.00000000   -0.00337662    0.01649879
     atom   64 type  1   force =     0.00000000   -0.00337663    0.01649874
     atom   65 type  1   force =     0.00000000   -0.00337682    0.01649845
     atom   66 type  1   force =     0.00000015    0.00162264    0.00959870
     atom   67 type  1   force =     0.00000000    0.00162246    0.00959892
     atom   68 type  1   force =    -0.00000015    0.00162264    0.00959870
     atom   69 type  1   force =     0.00000040    0.00164924   -0.02676071
     atom   70 type  1   force =     0.00000019    0.00164905   -0.02676107
     atom   71 type  1   force =    -0.00000040    0.00164924   -0.02676071
     atom   72 type  1   force =    -0.00000019    0.00164905   -0.02676107

     Total force =     0.095322     Total SCF correction =     0.001680
 
     init_run     :     47.17s CPU      6.80s WALL (       1 calls)
     electrons    :   2555.66s CPU    362.06s WALL (       1 calls)
     forces       :     17.02s CPU      2.18s WALL (       1 calls)

     Called by init_run:
     wfcinit      :     43.99s CPU      5.71s WALL (       1 calls)
     potinit      :      1.16s CPU      0.18s WALL (       1 calls)
     hinit0       :      1.10s CPU      0.38s WALL (       1 calls)

     Called by electrons:
     c_bands      :   2290.01s CPU    327.45s WALL (      22 calls)
     sum_band     :    243.50s CPU     31.56s WALL (      22 calls)
     v_of_rho     :     11.64s CPU      1.56s WALL (      22 calls)
     newd         :      6.00s CPU      0.93s WALL (      22 calls)
     mix_rho      :      2.96s CPU      0.38s WALL (      22 calls)

     Called by c_bands:
     init_us_2    :      8.91s CPU      1.19s WALL (     230 calls)
     cegterg      :   2103.83s CPU    267.75s WALL (     110 calls)

     Called by *egterg:
     cdiaghg      :    702.08s CPU     89.35s WALL (     640 calls)
     h_psi        :    875.06s CPU    111.58s WALL (     650 calls)
     s_psi        :    100.30s CPU     12.61s WALL (     650 calls)
     g_psi        :      1.98s CPU      0.25s WALL (     535 calls)

     Called by h_psi:
     h_psi:calbec :    127.67s CPU     16.15s WALL (     650 calls)
     vloc_psi     :    638.67s CPU     81.66s WALL (     650 calls)
     add_vuspsi   :    103.36s CPU     13.02s WALL (     650 calls)

     General routines
     calbec       :    189.46s CPU     23.97s WALL (     780 calls)
     fft          :      5.64s CPU      0.77s WALL (     296 calls)
     ffts         :      0.51s CPU      0.07s WALL (      44 calls)
     fftw         :    750.53s CPU     95.61s WALL (  285036 calls)
     interpolate  :      0.70s CPU      0.10s WALL (      22 calls)
 
     Parallel routines
     fft_scatt_xy :     68.61s CPU      8.75s WALL (  285376 calls)
     fft_scatt_yz :    394.26s CPU     51.04s WALL (  285376 calls)
 
     PWSCF        :  43m41.37s CPU   6m11.50s WALL

 
   This run was terminated on:   2:46:55   8Sep2021            

=------------------------------------------------------------------------------=
   JOB DONE.
=------------------------------------------------------------------------------=
