
     Program PWSCF v.6.6 starts on 16Sep2021 at 18:53:35 

     This program is part of the open-source Quantum ESPRESSO suite
     for quantum simulation of materials; please cite
         "P. Giannozzi et al., J. Phys.:Condens. Matter 21 395502 (2009);
         "P. Giannozzi et al., J. Phys.:Condens. Matter 29 465901 (2017);
          URL http://www.quantum-espresso.org", 
     in publications or presentations arising from this work. More details at
     http://www.quantum-espresso.org/quote

     Parallel version (MPI & OpenMP), running on     768 processor cores
     Number of MPI processes:               384
     Threads/MPI process:                     2

     MPI processes distributed on    16 nodes
     K-points division:     npool     =       2
     R & G space division:  proc/nbgrp/npool/nimage =     192
     Fft bands division:     nmany     =       1
     Reading input from ../inputs/input_ausurf_576

     Current dimensions of program PWSCF are:
     Max number of different atomic species (ntypx) = 10
     Max number of k-points (npk) =  40000
     Max angular momentum in pseudopotentials (lmaxx) =  3

     Subspace diagonalization in iterative solution of the eigenvalue problem:
     one sub-group per band group will be used
     ELPA distributed-memory algorithm (size of sub-group: 13* 13 procs)

     Found symmetry operation: I + (  0.1250  0.0000  0.0000)
     This is a supercell, fractional translations are disabled
 
     Parallelization info
     --------------------
     sticks:   dense  smooth     PW     G-vecs:    dense   smooth      PW
     Min         249     114     29                59373    18352    2407
     Max         250     115     30                59388    18359    2420
     Sum       47961   21921   5681             11401369  3524293  463395
 

     Title: 
      Ausurf                                                                    


     bravais-lattice index     =            8
     lattice parameter (alat)  =      44.5975  a.u.
     unit-cell volume          =  103111.8970 (a.u.)^3
     number of atoms/cell      =          576
     number of atomic types    =            1
     number of electrons       =      6336.00
     number of Kohn-Sham states=         3802
     kinetic-energy cutoff     =      40.0000  Ry
     charge density cutoff     =     350.0000  Ry
     convergence threshold     =      1.0E-06
     mixing beta               =       0.7000
     number of iterations used =            8  TF        mixing
     Exchange-correlation=  SLA  PW   PBE  PBE
                           (   1   4   3   4   0   0   0)

     celldm(1)=  44.597537  celldm(2)=   0.866025  celldm(3)=   1.342287
     celldm(4)=   0.000000  celldm(5)=   0.000000  celldm(6)=   0.000000

     crystal axes: (cart. coord. in units of alat)
               a(1) = (   1.000000   0.000000   0.000000 )  
               a(2) = (   0.000000   0.866025   0.000000 )  
               a(3) = (   0.000000   0.000000   1.342287 )  

     reciprocal axes: (cart. coord. in units 2 pi/alat)
               b(1) = (  1.000000  0.000000  0.000000 )  
               b(2) = (  0.000000  1.154701  0.000000 )  
               b(3) = (  0.000000  0.000000  0.744997 )  


     PseudoPot. # 1 for Au read from file:
     /marconi/home/userexternal/czeni000/dft_src/pseudo/Au.pbe-nd-van.UPF
     MD5 check sum: deb5c07af10777505a79e28f5b4b4115
     Pseudo is Ultrasoft + core correction, Zval = 11.0
     Generated by new atomic code, or converted to UPF format
     Using radial grid of  985 points,  3 beta functions with: 
                l(1) =   1
                l(2) =   2
                l(3) =   2
     Q(r) pseudized with  8 coefficients,  rinner =    1.100   1.100   1.100
                                                       1.100   1.100

     atomic species   valence    mass     pseudopotential
        Au            11.00   196.96000     Au( 1.00)

      2 Sym. Ops. (no inversion) found



   Cartesian axes

     site n.     atom                  positions (alat units)
         1           Au  tau(   1) = (   0.0000000   0.0000000   0.0000000  )
         2           Au  tau(   2) = (   0.1250000   0.0000000   0.0000000  )
         3           Au  tau(   3) = (   0.2500000   0.0000000   0.0000000  )
         4           Au  tau(   4) = (   0.0000000   0.2165064   0.0000000  )
         5           Au  tau(   5) = (   0.3750000   0.0000000   0.0000000  )
         6           Au  tau(   6) = (   0.1250000   0.2165064   0.0000000  )
         7           Au  tau(   7) = (   0.5000000   0.0000000   0.0000000  )
         8           Au  tau(   8) = (   0.2500000   0.2165064   0.0000000  )
         9           Au  tau(   9) = (   0.6250000   0.0000000   0.0000000  )
        10           Au  tau(  10) = (   0.0000000   0.4330127   0.0000000  )
        11           Au  tau(  11) = (   0.3750000   0.2165064   0.0000000  )
        12           Au  tau(  12) = (   0.7500000   0.0000000   0.0000000  )
        13           Au  tau(  13) = (   0.1250000   0.4330127   0.0000000  )
        14           Au  tau(  14) = (   0.5000000   0.2165064   0.0000000  )
        15           Au  tau(  15) = (   0.8750000   0.0000000   0.0000000  )
        16           Au  tau(  16) = (   0.2500000   0.4330127   0.0000000  )
        17           Au  tau(  17) = (   0.6250000   0.2165064   0.0000000  )
        18           Au  tau(  18) = (   0.0000000   0.6495191   0.0000000  )
        19           Au  tau(  19) = (   0.3750000   0.4330127   0.0000000  )
        20           Au  tau(  20) = (   0.7500000   0.2165064   0.0000000  )
        21           Au  tau(  21) = (   0.1250000   0.6495191   0.0000000  )
        22           Au  tau(  22) = (   0.5000000   0.4330127   0.0000000  )
        23           Au  tau(  23) = (   0.8750000   0.2165064   0.0000000  )
        24           Au  tau(  24) = (   0.2500000   0.6495191   0.0000000  )
        25           Au  tau(  25) = (   0.6250000   0.4330127   0.0000000  )
        26           Au  tau(  26) = (   0.3750000   0.6495191   0.0000000  )
        27           Au  tau(  27) = (   0.7500000   0.4330127   0.0000000  )
        28           Au  tau(  28) = (   0.5000000   0.6495191   0.0000000  )
        29           Au  tau(  29) = (   0.8750000   0.4330127   0.0000000  )
        30           Au  tau(  30) = (   0.6250000   0.6495191   0.0000000  )
        31           Au  tau(  31) = (   0.7500000   0.6495191   0.0000000  )
        32           Au  tau(  32) = (   0.8750000   0.6495191   0.0000000  )
        33           Au  tau(  33) = (   0.0625000   0.0360844   0.1020621  )
        34           Au  tau(  34) = (   0.1875000   0.0360844   0.1020621  )
        35           Au  tau(  35) = (   0.3125000   0.0360844   0.1020621  )
        36           Au  tau(  36) = (   0.0625000   0.2525908   0.1020621  )
        37           Au  tau(  37) = (   0.3125000   0.2525908   0.1020621  )
        38           Au  tau(  38) = (   0.4375000   0.0360844   0.1020621  )
        39           Au  tau(  39) = (   0.6875000   0.0360844   0.1020621  )
        40           Au  tau(  40) = (   0.0625000   0.4690971   0.1020621  )
        41           Au  tau(  41) = (   0.1875000   0.2525908   0.1020621  )
        42           Au  tau(  42) = (   0.1875000   0.4690971   0.1020621  )
        43           Au  tau(  43) = (   0.4375000   0.2525908   0.1020621  )
        44           Au  tau(  44) = (   0.5625000   0.0360844   0.1020621  )
        45           Au  tau(  45) = (   0.5625000   0.2525908   0.1020621  )
        46           Au  tau(  46) = (   0.8125000   0.0360844   0.1020621  )
        47           Au  tau(  47) = (   0.9375000   0.0360844   0.1020621  )
        48           Au  tau(  48) = (   0.1250000   0.1443376   0.1020621  )
        49           Au  tau(  49) = (   0.1250000   0.3608439   0.1020621  )
        50           Au  tau(  50) = (   0.5000000   0.1443376   0.1020621  )
        51           Au  tau(  51) = (   0.1875000   0.6856034   0.1020621  )
        52           Au  tau(  52) = (   0.3125000   0.4690971   0.1020621  )
        53           Au  tau(  53) = (   0.5625000   0.4690971   0.1020621  )
        54           Au  tau(  54) = (   0.6875000   0.2525908   0.1020621  )
        55           Au  tau(  55) = (   0.9375000   0.2525908   0.1020621  )
        56           Au  tau(  56) = (   0.2500000   0.1443376   0.1020621  )
        57           Au  tau(  57) = (   0.3750000   0.1443376   0.1020621  )
        58           Au  tau(  58) = (   0.0625000   0.6856034   0.1020621  )
        59           Au  tau(  59) = (   0.3125000   0.6856034   0.1020621  )
        60           Au  tau(  60) = (   0.4375000   0.4690971   0.1020621  )
        61           Au  tau(  61) = (   0.4375000   0.6856034   0.1020621  )
        62           Au  tau(  62) = (   0.6875000   0.4690971   0.1020621  )
        63           Au  tau(  63) = (   0.8125000   0.2525908   0.1020621  )
        64           Au  tau(  64) = (   0.8125000   0.4690971   0.1020621  )
        65           Au  tau(  65) = (   0.2500000   0.3608439   0.1020621  )
        66           Au  tau(  66) = (   0.3750000   0.3608439   0.1020621  )
        67           Au  tau(  67) = (   0.3750000   0.5773503   0.1020621  )
        68           Au  tau(  68) = (   0.6250000   0.1443376   0.1020621  )
        69           Au  tau(  69) = (   0.7500000   0.1443376   0.1020621  )
        70           Au  tau(  70) = (   0.7500000   0.3608439   0.1020621  )
        71           Au  tau(  71) = (   0.5625000   0.6856034   0.1020621  )
        72           Au  tau(  72) = (   0.9375000   0.4690971   0.1020621  )
        73           Au  tau(  73) = (   0.1250000   0.5773503   0.1020621  )
        74           Au  tau(  74) = (   0.2500000   0.5773503   0.1020621  )
        75           Au  tau(  75) = (   0.5000000   0.3608439   0.1020621  )
        76           Au  tau(  76) = (   0.6250000   0.3608439   0.1020621  )
        77           Au  tau(  77) = (   0.8750000   0.1443376   0.1020621  )
        78           Au  tau(  78) = (   1.0000000   0.1443376   0.1020621  )
        79           Au  tau(  79) = (   0.6875000   0.6856034   0.1020621  )
        80           Au  tau(  80) = (   0.8125000   0.6856034   0.1020621  )
        81           Au  tau(  81) = (   0.1250000   0.7938566   0.1020621  )
        82           Au  tau(  82) = (   0.2500000   0.7938566   0.1020621  )
        83           Au  tau(  83) = (   0.5000000   0.5773503   0.1020621  )
        84           Au  tau(  84) = (   0.6250000   0.5773503   0.1020621  )
        85           Au  tau(  85) = (   0.8750000   0.3608439   0.1020621  )
        86           Au  tau(  86) = (   1.0000000   0.3608439   0.1020621  )
        87           Au  tau(  87) = (   0.9375000   0.6856034   0.1020621  )
        88           Au  tau(  88) = (   0.3750000   0.7938566   0.1020621  )
        89           Au  tau(  89) = (   0.5000000   0.7938566   0.1020621  )
        90           Au  tau(  90) = (   0.6250000   0.7938566   0.1020621  )
        91           Au  tau(  91) = (   0.7500000   0.5773503   0.1020621  )
        92           Au  tau(  92) = (   0.8750000   0.5773503   0.1020621  )
        93           Au  tau(  93) = (   1.0000000   0.5773503   0.1020621  )
        94           Au  tau(  94) = (   0.7500000   0.7938566   0.1020621  )
        95           Au  tau(  95) = (   0.8750000   0.7938566   0.1020621  )
        96           Au  tau(  96) = (   1.0000000   0.7938566   0.1020621  )
        97           Au  tau(  97) = (   0.1250000   0.0721688   0.2041242  )
        98           Au  tau(  98) = (   0.3125000   0.1804219   0.2041242  )
        99           Au  tau(  99) = (   0.2500000   0.0721688   0.2041242  )
       100           Au  tau( 100) = (   0.3750000   0.0721688   0.2041242  )
       101           Au  tau( 101) = (   0.0625000   0.1804219   0.2041242  )
       102           Au  tau( 102) = (   0.1875000   0.1804219   0.2041242  )
       103           Au  tau( 103) = (   0.1250000   0.2886751   0.2041242  )
       104           Au  tau( 104) = (   0.2500000   0.2886751   0.2041242  )
       105           Au  tau( 105) = (   0.2500000   0.5051815   0.2041242  )
       106           Au  tau( 106) = (   0.2500000   0.7216878   0.2041242  )
       107           Au  tau( 107) = (   0.3750000   0.2886751   0.2041242  )
       108           Au  tau( 108) = (   0.5000000   0.0721688   0.2041242  )
       109           Au  tau( 109) = (   0.6250000   0.0721688   0.2041242  )
       110           Au  tau( 110) = (   0.6250000   0.2886751   0.2041242  )
       111           Au  tau( 111) = (   0.6250000   0.5051815   0.2041242  )
       112           Au  tau( 112) = (   0.7500000   0.0721688   0.2041242  )
       113           Au  tau( 113) = (   1.0000000   0.0721688   0.2041242  )
       114           Au  tau( 114) = (   1.0000000   0.2886751   0.2041242  )
       115           Au  tau( 115) = (   0.0625000   0.3969283   0.2041242  )
       116           Au  tau( 116) = (   0.0625000   0.6134347   0.2041242  )
       117           Au  tau( 117) = (   0.0625000   0.8299410   0.2041242  )
       118           Au  tau( 118) = (   0.1875000   0.3969283   0.2041242  )
       119           Au  tau( 119) = (   0.1875000   0.6134347   0.2041242  )
       120           Au  tau( 120) = (   0.4375000   0.1804219   0.2041242  )
       121           Au  tau( 121) = (   0.4375000   0.3969283   0.2041242  )
       122           Au  tau( 122) = (   0.4375000   0.6134347   0.2041242  )
       123           Au  tau( 123) = (   0.4375000   0.8299410   0.2041242  )
       124           Au  tau( 124) = (   0.5625000   0.1804219   0.2041242  )
       125           Au  tau( 125) = (   0.5625000   0.3969283   0.2041242  )
       126           Au  tau( 126) = (   0.8125000   0.1804219   0.2041242  )
       127           Au  tau( 127) = (   0.8125000   0.3969283   0.2041242  )
       128           Au  tau( 128) = (   0.8125000   0.6134347   0.2041242  )
       129           Au  tau( 129) = (   0.9375000   0.1804219   0.2041242  )
       130           Au  tau( 130) = (   0.1250000   0.5051815   0.2041242  )
       131           Au  tau( 131) = (   0.1250000   0.7216878   0.2041242  )
       132           Au  tau( 132) = (   0.3750000   0.5051815   0.2041242  )
       133           Au  tau( 133) = (   0.3750000   0.7216878   0.2041242  )
       134           Au  tau( 134) = (   0.5000000   0.2886751   0.2041242  )
       135           Au  tau( 135) = (   0.5000000   0.5051815   0.2041242  )
       136           Au  tau( 136) = (   0.5000000   0.7216878   0.2041242  )
       137           Au  tau( 137) = (   0.7500000   0.2886751   0.2041242  )
       138           Au  tau( 138) = (   0.7500000   0.5051815   0.2041242  )
       139           Au  tau( 139) = (   0.8750000   0.0721688   0.2041242  )
       140           Au  tau( 140) = (   0.8750000   0.2886751   0.2041242  )
       141           Au  tau( 141) = (   0.8750000   0.5051815   0.2041242  )
       142           Au  tau( 142) = (   0.1875000   0.8299410   0.2041242  )
       143           Au  tau( 143) = (   0.3125000   0.3969283   0.2041242  )
       144           Au  tau( 144) = (   0.3125000   0.6134347   0.2041242  )
       145           Au  tau( 145) = (   0.3125000   0.8299410   0.2041242  )
       146           Au  tau( 146) = (   0.5625000   0.6134347   0.2041242  )
       147           Au  tau( 147) = (   0.6875000   0.1804219   0.2041242  )
       148           Au  tau( 148) = (   0.6875000   0.3969283   0.2041242  )
       149           Au  tau( 149) = (   0.6875000   0.6134347   0.2041242  )
       150           Au  tau( 150) = (   0.9375000   0.3969283   0.2041242  )
       151           Au  tau( 151) = (   0.6250000   0.7216878   0.2041242  )
       152           Au  tau( 152) = (   0.7500000   0.7216878   0.2041242  )
       153           Au  tau( 153) = (   0.8750000   0.7216878   0.2041242  )
       154           Au  tau( 154) = (   1.0000000   0.5051815   0.2041242  )
       155           Au  tau( 155) = (   0.5625000   0.8299410   0.2041242  )
       156           Au  tau( 156) = (   0.6875000   0.8299410   0.2041242  )
       157           Au  tau( 157) = (   0.9375000   0.6134347   0.2041242  )
       158           Au  tau( 158) = (   0.9375000   0.8299410   0.2041242  )
       159           Au  tau( 159) = (   1.0000000   0.7216878   0.2041242  )
       160           Au  tau( 160) = (   0.8125000   0.8299410   0.2041242  )
       161           Au  tau( 161) = (   0.3125000   0.1082532   0.3061862  )
       162           Au  tau( 162) = (   0.0000000   0.0000000   0.3061862  )
       163           Au  tau( 163) = (   0.1250000   0.0000000   0.3061862  )
       164           Au  tau( 164) = (   0.2500000   0.0000000   0.3061862  )
       165           Au  tau( 165) = (   0.0625000   0.1082532   0.3061862  )
       166           Au  tau( 166) = (   0.0000000   0.4330127   0.3061862  )
       167           Au  tau( 167) = (   0.1250000   0.2165064   0.3061862  )
       168           Au  tau( 168) = (   0.1250000   0.4330127   0.3061862  )
       169           Au  tau( 169) = (   0.2500000   0.2165064   0.3061862  )
       170           Au  tau( 170) = (   0.3750000   0.2165064   0.3061862  )
       171           Au  tau( 171) = (   0.5000000   0.0000000   0.3061862  )
       172           Au  tau( 172) = (   0.5000000   0.2165064   0.3061862  )
       173           Au  tau( 173) = (   0.6250000   0.0000000   0.3061862  )
       174           Au  tau( 174) = (   0.7500000   0.0000000   0.3061862  )
       175           Au  tau( 175) = (   0.8750000   0.0000000   0.3061862  )
       176           Au  tau( 176) = (   0.0625000   0.3247595   0.3061862  )
       177           Au  tau( 177) = (   0.1875000   0.1082532   0.3061862  )
       178           Au  tau( 178) = (   0.1875000   0.3247595   0.3061862  )
       179           Au  tau( 179) = (   0.3125000   0.3247595   0.3061862  )
       180           Au  tau( 180) = (   0.4375000   0.1082532   0.3061862  )
       181           Au  tau( 181) = (   0.5625000   0.1082532   0.3061862  )
       182           Au  tau( 182) = (   0.6875000   0.1082532   0.3061862  )
       183           Au  tau( 183) = (   0.8125000   0.7577722   0.3061862  )
       184           Au  tau( 184) = (   0.0000000   0.2165064   0.3061862  )
       185           Au  tau( 185) = (   0.1250000   0.6495191   0.3061862  )
       186           Au  tau( 186) = (   0.2500000   0.6495191   0.3061862  )
       187           Au  tau( 187) = (   0.3750000   0.0000000   0.3061862  )
       188           Au  tau( 188) = (   0.3750000   0.6495191   0.3061862  )
       189           Au  tau( 189) = (   0.5000000   0.4330127   0.3061862  )
       190           Au  tau( 190) = (   0.6250000   0.4330127   0.3061862  )
       191           Au  tau( 191) = (   0.7500000   0.4330127   0.3061862  )
       192           Au  tau( 192) = (   0.8750000   0.2165064   0.3061862  )
       193           Au  tau( 193) = (   0.0625000   0.5412659   0.3061862  )
       194           Au  tau( 194) = (   0.0625000   0.7577722   0.3061862  )
       195           Au  tau( 195) = (   0.1875000   0.5412659   0.3061862  )
       196           Au  tau( 196) = (   0.1875000   0.7577722   0.3061862  )
       197           Au  tau( 197) = (   0.3125000   0.5412659   0.3061862  )
       198           Au  tau( 198) = (   0.4375000   0.3247595   0.3061862  )
       199           Au  tau( 199) = (   0.4375000   0.5412659   0.3061862  )
       200           Au  tau( 200) = (   0.5625000   0.3247595   0.3061862  )
       201           Au  tau( 201) = (   0.5625000   0.5412659   0.3061862  )
       202           Au  tau( 202) = (   0.6875000   0.3247595   0.3061862  )
       203           Au  tau( 203) = (   0.8125000   0.1082532   0.3061862  )
       204           Au  tau( 204) = (   0.8125000   0.3247595   0.3061862  )
       205           Au  tau( 205) = (   0.9375000   0.1082532   0.3061862  )
       206           Au  tau( 206) = (   0.9375000   0.3247595   0.3061862  )
       207           Au  tau( 207) = (   0.9375000   0.7577722   0.3061862  )
       208           Au  tau( 208) = (   0.0000000   0.6495191   0.3061862  )
       209           Au  tau( 209) = (   0.2500000   0.4330127   0.3061862  )
       210           Au  tau( 210) = (   0.3750000   0.4330127   0.3061862  )
       211           Au  tau( 211) = (   0.5000000   0.6495191   0.3061862  )
       212           Au  tau( 212) = (   0.6250000   0.2165064   0.3061862  )
       213           Au  tau( 213) = (   0.6250000   0.6495191   0.3061862  )
       214           Au  tau( 214) = (   0.7500000   0.2165064   0.3061862  )
       215           Au  tau( 215) = (   0.7500000   0.6495191   0.3061862  )
       216           Au  tau( 216) = (   0.8750000   0.4330127   0.3061862  )
       217           Au  tau( 217) = (   0.8750000   0.6495191   0.3061862  )
       218           Au  tau( 218) = (   0.3125000   0.7577722   0.3061862  )
       219           Au  tau( 219) = (   0.4375000   0.7577722   0.3061862  )
       220           Au  tau( 220) = (   0.5625000   0.7577722   0.3061862  )
       221           Au  tau( 221) = (   0.6875000   0.5412659   0.3061862  )
       222           Au  tau( 222) = (   0.6875000   0.7577722   0.3061862  )
       223           Au  tau( 223) = (   0.8125000   0.5412659   0.3061862  )
       224           Au  tau( 224) = (   0.9375000   0.5412659   0.3061862  )
       225           Au  tau( 225) = (   0.0625000   0.2525908   0.4082483  )
       226           Au  tau( 226) = (   0.4375000   0.0360844   0.4082483  )
       227           Au  tau( 227) = (   0.2500000   0.1443376   0.4082483  )
       228           Au  tau( 228) = (   0.0625000   0.0360844   0.4082483  )
       229           Au  tau( 229) = (   0.1875000   0.0360844   0.4082483  )
       230           Au  tau( 230) = (   0.1875000   0.2525908   0.4082483  )
       231           Au  tau( 231) = (   0.3125000   0.0360844   0.4082483  )
       232           Au  tau( 232) = (   0.5625000   0.0360844   0.4082483  )
       233           Au  tau( 233) = (   0.1250000   0.1443376   0.4082483  )
       234           Au  tau( 234) = (   0.1250000   0.3608439   0.4082483  )
       235           Au  tau( 235) = (   0.2500000   0.3608439   0.4082483  )
       236           Au  tau( 236) = (   0.3750000   0.1443376   0.4082483  )
       237           Au  tau( 237) = (   0.5000000   0.1443376   0.4082483  )
       238           Au  tau( 238) = (   0.6250000   0.1443376   0.4082483  )
       239           Au  tau( 239) = (   0.0625000   0.4690971   0.4082483  )
       240           Au  tau( 240) = (   0.0625000   0.6856034   0.4082483  )
       241           Au  tau( 241) = (   0.1875000   0.4690971   0.4082483  )
       242           Au  tau( 242) = (   0.1875000   0.6856034   0.4082483  )
       243           Au  tau( 243) = (   0.3125000   0.2525908   0.4082483  )
       244           Au  tau( 244) = (   0.3125000   0.4690971   0.4082483  )
       245           Au  tau( 245) = (   0.3125000   0.6856034   0.4082483  )
       246           Au  tau( 246) = (   0.4375000   0.2525908   0.4082483  )
       247           Au  tau( 247) = (   0.4375000   0.4690971   0.4082483  )
       248           Au  tau( 248) = (   0.4375000   0.6856034   0.4082483  )
       249           Au  tau( 249) = (   0.5625000   0.2525908   0.4082483  )
       250           Au  tau( 250) = (   0.5625000   0.4690971   0.4082483  )
       251           Au  tau( 251) = (   0.5625000   0.6856034   0.4082483  )
       252           Au  tau( 252) = (   0.6875000   0.0360844   0.4082483  )
       253           Au  tau( 253) = (   0.6875000   0.2525908   0.4082483  )
       254           Au  tau( 254) = (   0.6875000   0.4690971   0.4082483  )
       255           Au  tau( 255) = (   0.8125000   0.0360844   0.4082483  )
       256           Au  tau( 256) = (   0.8125000   0.2525908   0.4082483  )
       257           Au  tau( 257) = (   0.8125000   0.4690971   0.4082483  )
       258           Au  tau( 258) = (   0.9375000   0.0360844   0.4082483  )
       259           Au  tau( 259) = (   0.9375000   0.2525908   0.4082483  )
       260           Au  tau( 260) = (   0.9375000   0.4690971   0.4082483  )
       261           Au  tau( 261) = (   0.1250000   0.5773503   0.4082483  )
       262           Au  tau( 262) = (   0.1250000   0.7938566   0.4082483  )
       263           Au  tau( 263) = (   0.2500000   0.5773503   0.4082483  )
       264           Au  tau( 264) = (   0.2500000   0.7938566   0.4082483  )
       265           Au  tau( 265) = (   0.3750000   0.3608439   0.4082483  )
       266           Au  tau( 266) = (   0.3750000   0.5773503   0.4082483  )
       267           Au  tau( 267) = (   0.3750000   0.7938566   0.4082483  )
       268           Au  tau( 268) = (   0.5000000   0.3608439   0.4082483  )
       269           Au  tau( 269) = (   0.5000000   0.5773503   0.4082483  )
       270           Au  tau( 270) = (   0.6250000   0.3608439   0.4082483  )
       271           Au  tau( 271) = (   0.6250000   0.5773503   0.4082483  )
       272           Au  tau( 272) = (   0.7500000   0.1443376   0.4082483  )
       273           Au  tau( 273) = (   0.7500000   0.3608439   0.4082483  )
       274           Au  tau( 274) = (   0.7500000   0.5773503   0.4082483  )
       275           Au  tau( 275) = (   0.7500000   0.7938566   0.4082483  )
       276           Au  tau( 276) = (   0.8750000   0.1443376   0.4082483  )
       277           Au  tau( 277) = (   0.8750000   0.3608439   0.4082483  )
       278           Au  tau( 278) = (   1.0000000   0.1443376   0.4082483  )
       279           Au  tau( 279) = (   1.0000000   0.3608439   0.4082483  )
       280           Au  tau( 280) = (   0.6875000   0.6856034   0.4082483  )
       281           Au  tau( 281) = (   0.8125000   0.6856034   0.4082483  )
       282           Au  tau( 282) = (   0.9375000   0.6856034   0.4082483  )
       283           Au  tau( 283) = (   0.5000000   0.7938566   0.4082483  )
       284           Au  tau( 284) = (   0.6250000   0.7938566   0.4082483  )
       285           Au  tau( 285) = (   0.8750000   0.5773503   0.4082483  )
       286           Au  tau( 286) = (   0.8750000   0.7938566   0.4082483  )
       287           Au  tau( 287) = (   1.0000000   0.5773503   0.4082483  )
       288           Au  tau( 288) = (   1.0000000   0.7938566   0.4082483  )
       289           Au  tau( 289) = (   0.1250000   0.0721688   0.5103104  )
       290           Au  tau( 290) = (   0.2500000   0.0721688   0.5103104  )
       291           Au  tau( 291) = (   0.3750000   0.0721688   0.5103104  )
       292           Au  tau( 292) = (   0.0625000   0.1804219   0.5103104  )
       293           Au  tau( 293) = (   0.1875000   0.1804219   0.5103104  )
       294           Au  tau( 294) = (   0.1875000   0.3969283   0.5103104  )
       295           Au  tau( 295) = (   0.5625000   0.1804219   0.5103104  )
       296           Au  tau( 296) = (   0.1250000   0.2886751   0.5103104  )
       297           Au  tau( 297) = (   0.1250000   0.5051815   0.5103104  )
       298           Au  tau( 298) = (   0.1250000   0.7216878   0.5103104  )
       299           Au  tau( 299) = (   0.2500000   0.2886751   0.5103104  )
       300           Au  tau( 300) = (   0.2500000   0.5051815   0.5103104  )
       301           Au  tau( 301) = (   0.2500000   0.7216878   0.5103104  )
       302           Au  tau( 302) = (   0.3750000   0.2886751   0.5103104  )
       303           Au  tau( 303) = (   0.3750000   0.5051815   0.5103104  )
       304           Au  tau( 304) = (   0.3750000   0.7216878   0.5103104  )
       305           Au  tau( 305) = (   0.5000000   0.0721688   0.5103104  )
       306           Au  tau( 306) = (   0.5000000   0.2886751   0.5103104  )
       307           Au  tau( 307) = (   0.5000000   0.5051815   0.5103104  )
       308           Au  tau( 308) = (   0.5000000   0.7216878   0.5103104  )
       309           Au  tau( 309) = (   0.6250000   0.0721688   0.5103104  )
       310           Au  tau( 310) = (   0.6250000   0.2886751   0.5103104  )
       311           Au  tau( 311) = (   0.6250000   0.5051815   0.5103104  )
       312           Au  tau( 312) = (   0.7500000   0.0721688   0.5103104  )
       313           Au  tau( 313) = (   0.7500000   0.2886751   0.5103104  )
       314           Au  tau( 314) = (   0.7500000   0.5051815   0.5103104  )
       315           Au  tau( 315) = (   0.8750000   0.0721688   0.5103104  )
       316           Au  tau( 316) = (   0.8750000   0.2886751   0.5103104  )
       317           Au  tau( 317) = (   0.8750000   0.5051815   0.5103104  )
       318           Au  tau( 318) = (   1.0000000   0.0721688   0.5103104  )
       319           Au  tau( 319) = (   1.0000000   0.2886751   0.5103104  )
       320           Au  tau( 320) = (   0.0625000   0.3969283   0.5103104  )
       321           Au  tau( 321) = (   0.0625000   0.6134347   0.5103104  )
       322           Au  tau( 322) = (   0.0625000   0.8299410   0.5103104  )
       323           Au  tau( 323) = (   0.1875000   0.6134347   0.5103104  )
       324           Au  tau( 324) = (   0.1875000   0.8299410   0.5103104  )
       325           Au  tau( 325) = (   0.3125000   0.1804219   0.5103104  )
       326           Au  tau( 326) = (   0.3125000   0.3969283   0.5103104  )
       327           Au  tau( 327) = (   0.3125000   0.6134347   0.5103104  )
       328           Au  tau( 328) = (   0.3125000   0.8299410   0.5103104  )
       329           Au  tau( 329) = (   0.4375000   0.1804219   0.5103104  )
       330           Au  tau( 330) = (   0.4375000   0.3969283   0.5103104  )
       331           Au  tau( 331) = (   0.4375000   0.6134347   0.5103104  )
       332           Au  tau( 332) = (   0.5625000   0.3969283   0.5103104  )
       333           Au  tau( 333) = (   0.5625000   0.6134347   0.5103104  )
       334           Au  tau( 334) = (   0.6875000   0.1804219   0.5103104  )
       335           Au  tau( 335) = (   0.6875000   0.3969283   0.5103104  )
       336           Au  tau( 336) = (   0.6875000   0.6134347   0.5103104  )
       337           Au  tau( 337) = (   0.8125000   0.1804219   0.5103104  )
       338           Au  tau( 338) = (   0.8125000   0.3969283   0.5103104  )
       339           Au  tau( 339) = (   0.9375000   0.1804219   0.5103104  )
       340           Au  tau( 340) = (   0.9375000   0.3969283   0.5103104  )
       341           Au  tau( 341) = (   0.6250000   0.7216878   0.5103104  )
       342           Au  tau( 342) = (   0.7500000   0.7216878   0.5103104  )
       343           Au  tau( 343) = (   0.8750000   0.7216878   0.5103104  )
       344           Au  tau( 344) = (   1.0000000   0.5051815   0.5103104  )
       345           Au  tau( 345) = (   1.0000000   0.7216878   0.5103104  )
       346           Au  tau( 346) = (   0.4375000   0.8299410   0.5103104  )
       347           Au  tau( 347) = (   0.5625000   0.8299410   0.5103104  )
       348           Au  tau( 348) = (   0.6875000   0.8299410   0.5103104  )
       349           Au  tau( 349) = (   0.8125000   0.6134347   0.5103104  )
       350           Au  tau( 350) = (   0.8125000   0.8299410   0.5103104  )
       351           Au  tau( 351) = (   0.9375000   0.6134347   0.5103104  )
       352           Au  tau( 352) = (   0.9375000   0.8299410   0.5103104  )
       353           Au  tau( 353) = (   0.0000000   0.0000000   0.6123724  )
       354           Au  tau( 354) = (   0.0000000   0.2165064   0.6123724  )
       355           Au  tau( 355) = (   0.1250000   0.0000000   0.6123724  )
       356           Au  tau( 356) = (   0.1250000   0.2165064   0.6123724  )
       357           Au  tau( 357) = (   0.2500000   0.0000000   0.6123724  )
       358           Au  tau( 358) = (   0.3750000   0.0000000   0.6123724  )
       359           Au  tau( 359) = (   0.5000000   0.0000000   0.6123724  )
       360           Au  tau( 360) = (   0.0625000   0.1082532   0.6123724  )
       361           Au  tau( 361) = (   0.1875000   0.1082532   0.6123724  )
       362           Au  tau( 362) = (   0.3125000   0.1082532   0.6123724  )
       363           Au  tau( 363) = (   0.0000000   0.6495191   0.6123724  )
       364           Au  tau( 364) = (   0.1250000   0.4330127   0.6123724  )
       365           Au  tau( 365) = (   0.1250000   0.6495191   0.6123724  )
       366           Au  tau( 366) = (   0.2500000   0.4330127   0.6123724  )
       367           Au  tau( 367) = (   0.2500000   0.6495191   0.6123724  )
       368           Au  tau( 368) = (   0.3750000   0.4330127   0.6123724  )
       369           Au  tau( 369) = (   0.3750000   0.6495191   0.6123724  )
       370           Au  tau( 370) = (   0.5000000   0.2165064   0.6123724  )
       371           Au  tau( 371) = (   0.5000000   0.4330127   0.6123724  )
       372           Au  tau( 372) = (   0.5000000   0.6495191   0.6123724  )
       373           Au  tau( 373) = (   0.6250000   0.2165064   0.6123724  )
       374           Au  tau( 374) = (   0.6250000   0.4330127   0.6123724  )
       375           Au  tau( 375) = (   0.6250000   0.6495191   0.6123724  )
       376           Au  tau( 376) = (   0.7500000   0.2165064   0.6123724  )
       377           Au  tau( 377) = (   0.7500000   0.4330127   0.6123724  )
       378           Au  tau( 378) = (   0.8750000   0.0000000   0.6123724  )
       379           Au  tau( 379) = (   0.8750000   0.2165064   0.6123724  )
       380           Au  tau( 380) = (   0.8750000   0.4330127   0.6123724  )
       381           Au  tau( 381) = (   0.0625000   0.3247595   0.6123724  )
       382           Au  tau( 382) = (   0.0625000   0.5412659   0.6123724  )
       383           Au  tau( 383) = (   0.0625000   0.7577722   0.6123724  )
       384           Au  tau( 384) = (   0.1875000   0.3247595   0.6123724  )
       385           Au  tau( 385) = (   0.1875000   0.5412659   0.6123724  )
       386           Au  tau( 386) = (   0.1875000   0.7577722   0.6123724  )
       387           Au  tau( 387) = (   0.3125000   0.3247595   0.6123724  )
       388           Au  tau( 388) = (   0.3125000   0.5412659   0.6123724  )
       389           Au  tau( 389) = (   0.3125000   0.7577722   0.6123724  )
       390           Au  tau( 390) = (   0.4375000   0.1082532   0.6123724  )
       391           Au  tau( 391) = (   0.4375000   0.3247595   0.6123724  )
       392           Au  tau( 392) = (   0.4375000   0.5412659   0.6123724  )
       393           Au  tau( 393) = (   0.4375000   0.7577722   0.6123724  )
       394           Au  tau( 394) = (   0.5625000   0.1082532   0.6123724  )
       395           Au  tau( 395) = (   0.5625000   0.3247595   0.6123724  )
       396           Au  tau( 396) = (   0.5625000   0.5412659   0.6123724  )
       397           Au  tau( 397) = (   0.6875000   0.1082532   0.6123724  )
       398           Au  tau( 398) = (   0.6875000   0.3247595   0.6123724  )
       399           Au  tau( 399) = (   0.6875000   0.5412659   0.6123724  )
       400           Au  tau( 400) = (   0.8125000   0.1082532   0.6123724  )
       401           Au  tau( 401) = (   0.8125000   0.3247595   0.6123724  )
       402           Au  tau( 402) = (   0.8125000   0.5412659   0.6123724  )
       403           Au  tau( 403) = (   0.9375000   0.1082532   0.6123724  )
       404           Au  tau( 404) = (   0.9375000   0.3247595   0.6123724  )
       405           Au  tau( 405) = (   0.0000000   0.4330127   0.6123724  )
       406           Au  tau( 406) = (   0.2500000   0.2165064   0.6123724  )
       407           Au  tau( 407) = (   0.3750000   0.2165064   0.6123724  )
       408           Au  tau( 408) = (   0.6250000   0.0000000   0.6123724  )
       409           Au  tau( 409) = (   0.7500000   0.0000000   0.6123724  )
       410           Au  tau( 410) = (   0.5625000   0.7577722   0.6123724  )
       411           Au  tau( 411) = (   0.6875000   0.7577722   0.6123724  )
       412           Au  tau( 412) = (   0.9375000   0.5412659   0.6123724  )
       413           Au  tau( 413) = (   0.7500000   0.6495191   0.6123724  )
       414           Au  tau( 414) = (   0.8750000   0.6495191   0.6123724  )
       415           Au  tau( 415) = (   0.8125000   0.7577722   0.6123724  )
       416           Au  tau( 416) = (   0.9375000   0.7577722   0.6123724  )
       417           Au  tau( 417) = (   0.0625000   0.4690971   0.7144345  )
       418           Au  tau( 418) = (   0.1875000   0.4690971   0.7144345  )
       419           Au  tau( 419) = (   0.3125000   0.4690971   0.7144345  )
       420           Au  tau( 420) = (   0.4375000   0.2525908   0.7144345  )
       421           Au  tau( 421) = (   0.5625000   0.2525908   0.7144345  )
       422           Au  tau( 422) = (   0.6875000   0.2525908   0.7144345  )
       423           Au  tau( 423) = (   0.8125000   0.0360844   0.7144345  )
       424           Au  tau( 424) = (   0.9375000   0.0360844   0.7144345  )
       425           Au  tau( 425) = (   0.1250000   0.5773503   0.7144345  )
       426           Au  tau( 426) = (   0.2500000   0.3608439   0.7144345  )
       427           Au  tau( 427) = (   0.3750000   0.3608439   0.7144345  )
       428           Au  tau( 428) = (   0.5000000   0.3608439   0.7144345  )
       429           Au  tau( 429) = (   0.6250000   0.1443376   0.7144345  )
       430           Au  tau( 430) = (   0.7500000   0.1443376   0.7144345  )
       431           Au  tau( 431) = (   0.8750000   0.1443376   0.7144345  )
       432           Au  tau( 432) = (   0.0625000   0.0360844   0.7144345  )
       433           Au  tau( 433) = (   0.0625000   0.2525908   0.7144345  )
       434           Au  tau( 434) = (   0.0625000   0.6856034   0.7144345  )
       435           Au  tau( 435) = (   0.1875000   0.0360844   0.7144345  )
       436           Au  tau( 436) = (   0.1875000   0.2525908   0.7144345  )
       437           Au  tau( 437) = (   0.3125000   0.0360844   0.7144345  )
       438           Au  tau( 438) = (   0.3125000   0.2525908   0.7144345  )
       439           Au  tau( 439) = (   0.4375000   0.0360844   0.7144345  )
       440           Au  tau( 440) = (   0.4375000   0.4690971   0.7144345  )
       441           Au  tau( 441) = (   0.5625000   0.0360844   0.7144345  )
       442           Au  tau( 442) = (   0.6875000   0.0360844   0.7144345  )
       443           Au  tau( 443) = (   0.8125000   0.2525908   0.7144345  )
       444           Au  tau( 444) = (   0.1250000   0.1443376   0.7144345  )
       445           Au  tau( 445) = (   0.1250000   0.3608439   0.7144345  )
       446           Au  tau( 446) = (   0.1250000   0.7938566   0.7144345  )
       447           Au  tau( 447) = (   0.2500000   0.1443376   0.7144345  )
       448           Au  tau( 448) = (   0.2500000   0.5773503   0.7144345  )
       449           Au  tau( 449) = (   0.3750000   0.1443376   0.7144345  )
       450           Au  tau( 450) = (   0.3750000   0.5773503   0.7144345  )
       451           Au  tau( 451) = (   0.5000000   0.1443376   0.7144345  )
       452           Au  tau( 452) = (   0.5000000   0.5773503   0.7144345  )
       453           Au  tau( 453) = (   0.6250000   0.3608439   0.7144345  )
       454           Au  tau( 454) = (   0.7500000   0.3608439   0.7144345  )
       455           Au  tau( 455) = (   0.8750000   0.3608439   0.7144345  )
       456           Au  tau( 456) = (   1.0000000   0.1443376   0.7144345  )
       457           Au  tau( 457) = (   0.1875000   0.6856034   0.7144345  )
       458           Au  tau( 458) = (   0.3125000   0.6856034   0.7144345  )
       459           Au  tau( 459) = (   0.4375000   0.6856034   0.7144345  )
       460           Au  tau( 460) = (   0.5625000   0.4690971   0.7144345  )
       461           Au  tau( 461) = (   0.5625000   0.6856034   0.7144345  )
       462           Au  tau( 462) = (   0.6875000   0.4690971   0.7144345  )
       463           Au  tau( 463) = (   0.6875000   0.6856034   0.7144345  )
       464           Au  tau( 464) = (   0.8125000   0.4690971   0.7144345  )
       465           Au  tau( 465) = (   0.8125000   0.6856034   0.7144345  )
       466           Au  tau( 466) = (   0.9375000   0.2525908   0.7144345  )
       467           Au  tau( 467) = (   0.9375000   0.4690971   0.7144345  )
       468           Au  tau( 468) = (   0.9375000   0.6856034   0.7144345  )
       469           Au  tau( 469) = (   0.2500000   0.7938566   0.7144345  )
       470           Au  tau( 470) = (   0.3750000   0.7938566   0.7144345  )
       471           Au  tau( 471) = (   0.5000000   0.7938566   0.7144345  )
       472           Au  tau( 472) = (   0.6250000   0.5773503   0.7144345  )
       473           Au  tau( 473) = (   0.6250000   0.7938566   0.7144345  )
       474           Au  tau( 474) = (   0.7500000   0.5773503   0.7144345  )
       475           Au  tau( 475) = (   0.7500000   0.7938566   0.7144345  )
       476           Au  tau( 476) = (   0.8750000   0.5773503   0.7144345  )
       477           Au  tau( 477) = (   0.8750000   0.7938566   0.7144345  )
       478           Au  tau( 478) = (   1.0000000   0.3608439   0.7144345  )
       479           Au  tau( 479) = (   1.0000000   0.5773503   0.7144345  )
       480           Au  tau( 480) = (   1.0000000   0.7938566   0.7144345  )
       481           Au  tau( 481) = (   0.1250000   0.5051815   0.8164966  )
       482           Au  tau( 482) = (   0.2500000   0.5051815   0.8164966  )
       483           Au  tau( 483) = (   0.3750000   0.2886751   0.8164966  )
       484           Au  tau( 484) = (   0.5000000   0.2886751   0.8164966  )
       485           Au  tau( 485) = (   0.6250000   0.2886751   0.8164966  )
       486           Au  tau( 486) = (   0.7500000   0.0721688   0.8164966  )
       487           Au  tau( 487) = (   0.8750000   0.0721688   0.8164966  )
       488           Au  tau( 488) = (   1.0000000   0.0721688   0.8164966  )
       489           Au  tau( 489) = (   0.0625000   0.6134347   0.8164966  )
       490           Au  tau( 490) = (   0.1875000   0.3969283   0.8164966  )
       491           Au  tau( 491) = (   0.3125000   0.3969283   0.8164966  )
       492           Au  tau( 492) = (   0.4375000   0.3969283   0.8164966  )
       493           Au  tau( 493) = (   0.5625000   0.1804219   0.8164966  )
       494           Au  tau( 494) = (   0.6875000   0.1804219   0.8164966  )
       495           Au  tau( 495) = (   0.8125000   0.1804219   0.8164966  )
       496           Au  tau( 496) = (   0.1250000   0.0721688   0.8164966  )
       497           Au  tau( 497) = (   0.1250000   0.2886751   0.8164966  )
       498           Au  tau( 498) = (   0.1250000   0.7216878   0.8164966  )
       499           Au  tau( 499) = (   0.2500000   0.0721688   0.8164966  )
       500           Au  tau( 500) = (   0.2500000   0.2886751   0.8164966  )
       501           Au  tau( 501) = (   0.3750000   0.0721688   0.8164966  )
       502           Au  tau( 502) = (   0.3750000   0.5051815   0.8164966  )
       503           Au  tau( 503) = (   0.5000000   0.0721688   0.8164966  )
       504           Au  tau( 504) = (   0.5000000   0.5051815   0.8164966  )
       505           Au  tau( 505) = (   0.6250000   0.0721688   0.8164966  )
       506           Au  tau( 506) = (   0.7500000   0.2886751   0.8164966  )
       507           Au  tau( 507) = (   0.8750000   0.2886751   0.8164966  )
       508           Au  tau( 508) = (   0.0625000   0.1804219   0.8164966  )
       509           Au  tau( 509) = (   0.0625000   0.3969283   0.8164966  )
       510           Au  tau( 510) = (   0.0625000   0.8299410   0.8164966  )
       511           Au  tau( 511) = (   0.1875000   0.1804219   0.8164966  )
       512           Au  tau( 512) = (   0.1875000   0.6134347   0.8164966  )
       513           Au  tau( 513) = (   0.3125000   0.1804219   0.8164966  )
       514           Au  tau( 514) = (   0.3125000   0.6134347   0.8164966  )
       515           Au  tau( 515) = (   0.4375000   0.1804219   0.8164966  )
       516           Au  tau( 516) = (   0.4375000   0.6134347   0.8164966  )
       517           Au  tau( 517) = (   0.5625000   0.3969283   0.8164966  )
       518           Au  tau( 518) = (   0.6875000   0.3969283   0.8164966  )
       519           Au  tau( 519) = (   0.8125000   0.3969283   0.8164966  )
       520           Au  tau( 520) = (   0.9375000   0.1804219   0.8164966  )
       521           Au  tau( 521) = (   0.2500000   0.7216878   0.8164966  )
       522           Au  tau( 522) = (   0.3750000   0.7216878   0.8164966  )
       523           Au  tau( 523) = (   0.5000000   0.7216878   0.8164966  )
       524           Au  tau( 524) = (   0.6250000   0.5051815   0.8164966  )
       525           Au  tau( 525) = (   0.6250000   0.7216878   0.8164966  )
       526           Au  tau( 526) = (   0.7500000   0.5051815   0.8164966  )
       527           Au  tau( 527) = (   0.7500000   0.7216878   0.8164966  )
       528           Au  tau( 528) = (   0.8750000   0.5051815   0.8164966  )
       529           Au  tau( 529) = (   0.8750000   0.7216878   0.8164966  )
       530           Au  tau( 530) = (   1.0000000   0.2886751   0.8164966  )
       531           Au  tau( 531) = (   1.0000000   0.5051815   0.8164966  )
       532           Au  tau( 532) = (   1.0000000   0.7216878   0.8164966  )
       533           Au  tau( 533) = (   0.1875000   0.8299410   0.8164966  )
       534           Au  tau( 534) = (   0.3125000   0.8299410   0.8164966  )
       535           Au  tau( 535) = (   0.4375000   0.8299410   0.8164966  )
       536           Au  tau( 536) = (   0.5625000   0.6134347   0.8164966  )
       537           Au  tau( 537) = (   0.5625000   0.8299410   0.8164966  )
       538           Au  tau( 538) = (   0.6875000   0.6134347   0.8164966  )
       539           Au  tau( 539) = (   0.6875000   0.8299410   0.8164966  )
       540           Au  tau( 540) = (   0.8125000   0.6134347   0.8164966  )
       541           Au  tau( 541) = (   0.8125000   0.8299410   0.8164966  )
       542           Au  tau( 542) = (   0.9375000   0.3969283   0.8164966  )
       543           Au  tau( 543) = (   0.9375000   0.6134347   0.8164966  )
       544           Au  tau( 544) = (   0.9375000   0.8299410   0.8164966  )
       545           Au  tau( 545) = (   0.0625000   0.5412659   0.9185586  )
       546           Au  tau( 546) = (   0.1875000   0.5412659   0.9185586  )
       547           Au  tau( 547) = (   0.3125000   0.3247595   0.9185586  )
       548           Au  tau( 548) = (   0.4375000   0.3247595   0.9185586  )
       549           Au  tau( 549) = (   0.5625000   0.3247595   0.9185586  )
       550           Au  tau( 550) = (   0.6875000   0.1082532   0.9185586  )
       551           Au  tau( 551) = (   0.8125000   0.1082532   0.9185586  )
       552           Au  tau( 552) = (   0.9375000   0.1082532   0.9185586  )
       553           Au  tau( 553) = (   0.0625000   0.1082532   0.9185586  )
       554           Au  tau( 554) = (   0.0625000   0.3247595   0.9185586  )
       555           Au  tau( 555) = (   0.0625000   0.7577722   0.9185586  )
       556           Au  tau( 556) = (   0.1875000   0.1082532   0.9185586  )
       557           Au  tau( 557) = (   0.1875000   0.3247595   0.9185586  )
       558           Au  tau( 558) = (   0.3125000   0.1082532   0.9185586  )
       559           Au  tau( 559) = (   0.3125000   0.5412659   0.9185586  )
       560           Au  tau( 560) = (   0.4375000   0.1082532   0.9185586  )
       561           Au  tau( 561) = (   0.4375000   0.5412659   0.9185586  )
       562           Au  tau( 562) = (   0.5625000   0.1082532   0.9185586  )
       563           Au  tau( 563) = (   0.6875000   0.3247595   0.9185586  )
       564           Au  tau( 564) = (   0.8125000   0.3247595   0.9185586  )
       565           Au  tau( 565) = (   0.4375000   0.7577722   0.9185586  )
       566           Au  tau( 566) = (   0.5625000   0.7577722   0.9185586  )
       567           Au  tau( 567) = (   0.6875000   0.7577722   0.9185586  )
       568           Au  tau( 568) = (   0.8125000   0.5412659   0.9185586  )
       569           Au  tau( 569) = (   0.8125000   0.7577722   0.9185586  )
       570           Au  tau( 570) = (   0.9375000   0.5412659   0.9185586  )
       571           Au  tau( 571) = (   0.9375000   0.7577722   0.9185586  )
       572           Au  tau( 572) = (   0.1875000   0.7577722   0.9185586  )
       573           Au  tau( 573) = (   0.3125000   0.7577722   0.9185586  )
       574           Au  tau( 574) = (   0.5625000   0.5412659   0.9185586  )
       575           Au  tau( 575) = (   0.6875000   0.5412659   0.9185586  )
       576           Au  tau( 576) = (   0.9375000   0.3247595   0.9185586  )

     number of k points=     4  Marzari-Vanderbilt smearing, width (Ry)=  0.0500
                       cart. coord. in units 2pi/alat
        k(    1) = (   0.1666667   0.1924501   0.0000000), wk =   0.8888889
        k(    2) = (   0.1666667  -0.5773503   0.0000000), wk =   0.4444444
        k(    3) = (  -0.5000000   0.1924501   0.0000000), wk =   0.4444444
        k(    4) = (  -0.5000000  -0.5773503   0.0000000), wk =   0.2222222

     Dense  grid: 11401369 G-vectors     FFT dimensions: ( 270, 240, 360)

     Smooth grid:  3524293 G-vectors     FFT dimensions: ( 180, 160, 243)

     Estimated max dynamical RAM per process >       1.90 GB

     Estimated total dynamical RAM >     728.85 GB

     Initial potential from superposition of free atoms

     starting charge 6329.31153, renormalised to 6336.00000

     negative rho (up, down):  1.536E+01 0.000E+00
     Starting wfcs are 5184 randomized atomic wfcs

     total cpu time spent up to now is      128.7 secs

     Self-consistent Calculation

     iteration #  1     ecut=    40.00 Ry     beta= 0.70
     Davidson diagonalization with overlap
     ethr =  1.00E-02,  avg # of iterations =  3.0

     Threshold (ethr) on eigenvalues was too large:
     Diagonalizing with lowered threshold

     Davidson diagonalization with overlap
     ethr =  3.34E-04,  avg # of iterations =  3.8

     negative rho (up, down):  1.461E+01 0.000E+00

     total cpu time spent up to now is      773.7 secs

     total energy              =  -58770.14185799 Ry
     estimated scf accuracy    <      25.27986765 Ry

     iteration #  2     ecut=    40.00 Ry     beta= 0.70
     Davidson diagonalization with overlap
     ethr =  3.99E-04,  avg # of iterations =  1.2

     negative rho (up, down):  1.543E+01 0.000E+00

     total cpu time spent up to now is     1036.7 secs

     total energy              =  -58771.29727736 Ry
     estimated scf accuracy    <      11.26004648 Ry

     iteration #  3     ecut=    40.00 Ry     beta= 0.70
     Davidson diagonalization with overlap
     ethr =  1.78E-04,  avg # of iterations =  2.5

     negative rho (up, down):  1.621E+01 0.000E+00

     total cpu time spent up to now is     1319.9 secs

     total energy              =  -58771.23018414 Ry
     estimated scf accuracy    <       6.59647121 Ry

     iteration #  4     ecut=    40.00 Ry     beta= 0.70
     Davidson diagonalization with overlap
     ethr =  1.04E-04,  avg # of iterations = 14.2

     negative rho (up, down):  1.619E+01 0.000E+00

     total cpu time spent up to now is     1842.4 secs

     total energy              =  -58771.13140350 Ry
     estimated scf accuracy    <       3.22434147 Ry

     iteration #  5     ecut=    40.00 Ry     beta= 0.70
     Davidson diagonalization with overlap
     c_bands:  3 eigenvalues not converged
     ethr =  5.09E-05,  avg # of iterations = 19.0

     negative rho (up, down):  1.580E+01 0.000E+00

     total cpu time spent up to now is     2222.9 secs

     total energy              =  -58771.07538958 Ry
     estimated scf accuracy    <       1.98573048 Ry

     iteration #  6     ecut=    40.00 Ry     beta= 0.70
     Davidson diagonalization with overlap
     ethr =  3.13E-05,  avg # of iterations = 16.5

     negative rho (up, down):  1.581E+01 0.000E+00

     total cpu time spent up to now is     2579.2 secs

     total energy              =  -58771.04913371 Ry
     estimated scf accuracy    <       1.92674743 Ry

     iteration #  7     ecut=    40.00 Ry     beta= 0.70
     Davidson diagonalization with overlap
     ethr =  3.04E-05,  avg # of iterations =  5.2

     negative rho (up, down):  1.566E+01 0.000E+00

     total cpu time spent up to now is     2884.3 secs

     total energy              =  -58771.23705319 Ry
     estimated scf accuracy    <       1.98990759 Ry

     iteration #  8     ecut=    40.00 Ry     beta= 0.70
     Davidson diagonalization with overlap
     ethr =  3.04E-05,  avg # of iterations =  3.5

     negative rho (up, down):  1.640E+01 0.000E+00

     total cpu time spent up to now is     3171.8 secs

     total energy              =  -58770.79641860 Ry
     estimated scf accuracy    <       3.21425913 Ry

     iteration #  9     ecut=    40.00 Ry     beta= 0.70
     Davidson diagonalization with overlap
     ethr =  3.04E-05,  avg # of iterations = 13.5

     negative rho (up, down):  1.620E+01 0.000E+00

     total cpu time spent up to now is     3786.2 secs

     total energy              =  -58771.11718000 Ry
     estimated scf accuracy    <       7.17365951 Ry

     iteration # 10     ecut=    40.00 Ry     beta= 0.70
     Davidson diagonalization with overlap
     ethr =  3.04E-05,  avg # of iterations =  1.2

     negative rho (up, down):  1.662E+01 0.000E+00

     total cpu time spent up to now is     4050.8 secs

     total energy              =  -58771.00865586 Ry
     estimated scf accuracy    <       3.21724933 Ry

     iteration # 11     ecut=    40.00 Ry     beta= 0.70
     Davidson diagonalization with overlap
     ethr =  3.04E-05,  avg # of iterations =  1.0

     negative rho (up, down):  1.588E+01 0.000E+00

     total cpu time spent up to now is     4288.2 secs

     total energy              =  -58770.91950991 Ry
     estimated scf accuracy    <       2.09599131 Ry

     iteration # 12     ecut=    40.00 Ry     beta= 0.70
     Davidson diagonalization with overlap
     ethr =  3.04E-05,  avg # of iterations =  5.2

     negative rho (up, down):  1.665E+01 0.000E+00

     total cpu time spent up to now is     4724.2 secs

     total energy              =  -58770.83475702 Ry
     estimated scf accuracy    <       0.54208857 Ry

     iteration # 13     ecut=    40.00 Ry     beta= 0.70
     Davidson diagonalization with overlap
     ethr =  8.56E-06,  avg # of iterations = 14.5

     negative rho (up, down):  1.628E+01 0.000E+00

     total cpu time spent up to now is     5262.3 secs

     total energy              =  -58770.88297214 Ry
     estimated scf accuracy    <       0.13057553 Ry

     iteration # 14     ecut=    40.00 Ry     beta= 0.70
     Davidson diagonalization with overlap
     c_bands:  1 eigenvalues not converged
     c_bands:  1 eigenvalues not converged
     ethr =  2.06E-06,  avg # of iterations = 23.8

     negative rho (up, down):  1.623E+01 0.000E+00

     total cpu time spent up to now is     5968.9 secs

     total energy              =  -58770.90707562 Ry
     estimated scf accuracy    <       0.61556255 Ry

     iteration # 15     ecut=    40.00 Ry     beta= 0.70
     Davidson diagonalization with overlap
     c_bands:  1 eigenvalues not converged
     c_bands:  1 eigenvalues not converged
     ethr =  2.06E-06,  avg # of iterations = 15.5

     negative rho (up, down):  1.626E+01 0.000E+00

     total cpu time spent up to now is     6432.1 secs

     total energy              =  -58770.84279257 Ry
     estimated scf accuracy    <       0.43342104 Ry

     iteration # 16     ecut=    40.00 Ry     beta= 0.70
     Davidson diagonalization with overlap
     ethr =  2.06E-06,  avg # of iterations = 10.2

     negative rho (up, down):  1.597E+01 0.000E+00

     total cpu time spent up to now is     6864.2 secs

     total energy              =  -58770.85488927 Ry
     estimated scf accuracy    <       0.02908366 Ry

     iteration # 17     ecut=    40.00 Ry     beta= 0.70
     Davidson diagonalization with overlap
     ethr =  4.59E-07,  avg # of iterations =  6.5

     negative rho (up, down):  1.580E+01 0.000E+00

     total cpu time spent up to now is     7193.2 secs

     total energy              =  -58770.85033044 Ry
     estimated scf accuracy    <       0.02234820 Ry

     iteration # 18     ecut=    40.00 Ry     beta= 0.70
     Davidson diagonalization with overlap
     ethr =  3.53E-07,  avg # of iterations = 12.8

     negative rho (up, down):  1.571E+01 0.000E+00

     total cpu time spent up to now is     7609.8 secs

     total energy              =  -58770.85276831 Ry
     estimated scf accuracy    <       0.00508027 Ry

     iteration # 19     ecut=    40.00 Ry     beta= 0.70
     Davidson diagonalization with overlap
     c_bands:  1 eigenvalues not converged
     ethr =  8.02E-08,  avg # of iterations = 15.8

     negative rho (up, down):  1.569E+01 0.000E+00

     total cpu time spent up to now is     8002.0 secs

     total energy              =  -58770.85355437 Ry
     estimated scf accuracy    <       0.00445638 Ry

     iteration # 20     ecut=    40.00 Ry     beta= 0.70
     Davidson diagonalization with overlap
     ethr =  7.03E-08,  avg # of iterations =  6.5

     negative rho (up, down):  1.568E+01 0.000E+00

     total cpu time spent up to now is     8317.2 secs

     total energy              =  -58770.85334512 Ry
     estimated scf accuracy    <       0.00395715 Ry

     iteration # 21     ecut=    40.00 Ry     beta= 0.70
     Davidson diagonalization with overlap
     ethr =  6.25E-08,  avg # of iterations =  7.2

     negative rho (up, down):  1.567E+01 0.000E+00

     total cpu time spent up to now is     8619.3 secs

     total energy              =  -58770.85346804 Ry
     estimated scf accuracy    <       0.00028047 Ry

     iteration # 22     ecut=    40.00 Ry     beta= 0.70
     Davidson diagonalization with overlap
     ethr =  4.43E-09,  avg # of iterations =  3.0

     negative rho (up, down):  1.567E+01 0.000E+00

     total cpu time spent up to now is     8948.6 secs

     total energy              =  -58770.85357280 Ry
     estimated scf accuracy    <       0.00009430 Ry

     iteration # 23     ecut=    40.00 Ry     beta= 0.70
     Davidson diagonalization with overlap
     ethr =  1.49E-09,  avg # of iterations =  3.0

     negative rho (up, down):  1.567E+01 0.000E+00

     total cpu time spent up to now is     9238.0 secs

     total energy              =  -58770.85358304 Ry
     estimated scf accuracy    <       0.00001258 Ry

     iteration # 24     ecut=    40.00 Ry     beta= 0.70
     Davidson diagonalization with overlap
     ethr =  1.98E-10,  avg # of iterations =  5.0

     negative rho (up, down):  1.567E+01 0.000E+00

     total cpu time spent up to now is     9578.5 secs

     End of self-consistent calculation

          k = 0.1667 0.1925 0.0000 (440477 PWs)   bands (ev):

    -0.8128  -0.5875  -0.5138  -0.4712  -0.3679  -0.2962  -0.2495  -0.2261
    -0.1777  -0.0865  -0.0349  -0.0151   0.0256   0.0346   0.1021   0.1859
     0.2374   0.2428   0.2538   0.3064   0.3118   0.4511   0.4901   0.4985
     0.5172   0.5493   0.5641   0.5803   0.6016   0.6352   0.7099   0.7196
     0.7501   0.7754   0.7834   0.8165   0.8246   0.8363   0.8822   0.9224
     0.9342   0.9540   0.9651   0.9952   1.0080   1.0168   1.0200   1.0261
     1.0821   1.0910   1.1252   1.1389   1.1688   1.1955   1.2052   1.2161
     1.2465   1.2570   1.2645   1.3265   1.3388   1.3394   1.3533   1.3569
     1.3855   1.4020   1.4025   1.4233   1.4410   1.4436   1.4556   1.4600
     1.4638   1.4903   1.5059   1.5100   1.5409   1.5528   1.5574   1.5604
     1.5650   1.5684   1.5734   1.5753   1.5835   1.5900   1.5913   1.5994
     1.6037   1.6067   1.6084   1.6144   1.6196   1.6433   1.6471   1.6534
     1.6541   1.6634   1.6925   1.6938   1.6939   1.7082   1.7092   1.7230
     1.7256   1.7261   1.7271   1.7428   1.7517   1.7548   1.7556   1.7633
     1.7737   1.7753   1.7935   1.7976   1.8041   1.8169   1.8292   1.8301
     1.8302   1.8310   1.8328   1.8362   1.8384   1.8477   1.8507   1.8517
     1.8523   1.8537   1.8547   1.8557   1.8572   1.8583   1.8642   1.8684
     1.8814   1.8822   1.8899   1.8927   1.8937   1.8950   1.9104   1.9118
     1.9219   1.9270   1.9302   1.9311   1.9356   1.9394   1.9418   1.9443
     1.9456   1.9456   1.9477   1.9509   1.9647   1.9650   1.9687   1.9731
     1.9732   1.9845   1.9848   1.9865   1.9924   1.9973   1.9992   1.9999
     2.0084   2.0090   2.0096   2.0105   2.0134   2.0151   2.0219   2.0286
     2.0303   2.0338   2.0384   2.0384   2.0407   2.0428   2.0436   2.0467
     2.0561   2.0594   2.0659   2.0743   2.0846   2.0856   2.0864   2.0884
     2.0887   2.0947   2.0984   2.1028   2.1079   2.1098   2.1107   2.1115
     2.1131   2.1221   2.1228   2.1255   2.1273   2.1293   2.1327   2.1380
     2.1388   2.1389   2.1415   2.1442   2.1459   2.1468   2.1517   2.1521
     2.1579   2.1597   2.1617   2.1637   2.1658   2.1665   2.1686   2.1689
     2.1716   2.1765   2.1783   2.1826   2.1858   2.1963   2.1977   2.1985
     2.1987   2.2007   2.2044   2.2126   2.2151   2.2168   2.2188   2.2191
     2.2247   2.2259   2.2294   2.2304   2.2309   2.2315   2.2341   2.2344
     2.2357   2.2383   2.2417   2.2419   2.2430   2.2443   2.2446   2.2451
     2.2478   2.2487   2.2514   2.2592   2.2735   2.2776   2.2805   2.2808
     2.2887   2.2893   2.2907   2.2931   2.3020   2.3028   2.3038   2.3047
     2.3081   2.3082   2.3087   2.3101   2.3149   2.3162   2.3181   2.3181
     2.3196   2.3230   2.3255   2.3261   2.3264   2.3296   2.3319   2.3320
     2.3328   2.3339   2.3376   2.3383   2.3406   2.3434   2.3438   2.3440
     2.3451   2.3479   2.3496   2.3504   2.3551   2.3554   2.3560   2.3581
     2.3629   2.3655   2.3701   2.3702   2.3711   2.3757   2.3766   2.3809
     2.3812   2.3826   2.3834   2.3857   2.3917   2.3931   2.3992   2.4011
     2.4065   2.4082   2.4116   2.4119   2.4124   2.4164   2.4167   2.4225
     2.4232   2.4264   2.4264   2.4266   2.4283   2.4285   2.4286   2.4303
     2.4307   2.4308   2.4338   2.4366   2.4394   2.4397   2.4408   2.4484
     2.4495   2.4503   2.4516   2.4524   2.4564   2.4604   2.4620   2.4667
     2.4672   2.4678   2.4687   2.4701   2.4745   2.4759   2.4760   2.4767
     2.4838   2.4839   2.4852   2.4858   2.4879   2.4888   2.4891   2.4954
     2.4986   2.5040   2.5089   2.5097   2.5110   2.5136   2.5137   2.5152
     2.5197   2.5204   2.5246   2.5292   2.5323   2.5359   2.5372   2.5377
     2.5381   2.5395   2.5431   2.5464   2.5475   2.5478   2.5513   2.5523
     2.5535   2.5557   2.5581   2.5603   2.5629   2.5644   2.5648   2.5682
     2.5682   2.5684   2.5689   2.5743   2.5758   2.5778   2.5779   2.5802
     2.5803   2.5813   2.5827   2.5868   2.5882   2.5906   2.5917   2.5925
     2.5929   2.5934   2.5946   2.5964   2.5983   2.5987   2.5987   2.5992
     2.6023   2.6073   2.6141   2.6144   2.6171   2.6192   2.6208   2.6209
     2.6212   2.6235   2.6340   2.6353   2.6417   2.6434   2.6454   2.6454
     2.6542   2.6551   2.6575   2.6592   2.6601   2.6615   2.6637   2.6638
     2.6673   2.6685   2.6689   2.6701   2.6732   2.6785   2.6793   2.6806
     2.6825   2.6825   2.6848   2.6896   2.6917   2.6934   2.6943   2.6981
     2.6990   2.7014   2.7041   2.7049   2.7051   2.7087   2.7105   2.7150
     2.7165   2.7167   2.7199   2.7200   2.7237   2.7239   2.7268   2.7285
     2.7309   2.7329   2.7342   2.7342   2.7431   2.7452   2.7477   2.7543
     2.7552   2.7573   2.7592   2.7602   2.7645   2.7659   2.7660   2.7668
     2.7677   2.7691   2.7719   2.7726   2.7748   2.7749   2.7758   2.7782
     2.7811   2.7812   2.7829   2.7842   2.7850   2.7856   2.7856   2.7884
     2.7908   2.7929   2.7939   2.7957   2.8063   2.8067   2.8069   2.8072
     2.8081   2.8125   2.8126   2.8137   2.8148   2.8148   2.8175   2.8194
     2.8204   2.8213   2.8248   2.8345   2.8367   2.8372   2.8468   2.8491
     2.8493   2.8510   2.8533   2.8555   2.8556   2.8573   2.8574   2.8589
     2.8596   2.8601   2.8610   2.8680   2.8722   2.8756   2.8760   2.8792
     2.8834   2.8853   2.8936   2.8939   2.8950   2.8983   2.8987   2.9034
     2.9119   2.9120   2.9155   2.9183   2.9197   2.9210   2.9216   2.9230
     2.9233   2.9296   2.9314   2.9327   2.9351   2.9372   2.9374   2.9405
     2.9425   2.9434   2.9480   2.9505   2.9538   2.9566   2.9569   2.9593
     2.9596   2.9600   2.9614   2.9795   2.9796   2.9842   2.9843   2.9870
     2.9893   2.9976   2.9985   3.0087   3.0113   3.0221   3.0239   3.0440
     3.0441   3.0498   3.0503   3.0563   3.0564   3.0567   3.0594   3.0638
     3.0663   3.0677   3.0681   3.0692   3.0696   3.0698   3.0728   3.0779
     3.0805   3.0816   3.0829   3.0836   3.0836   3.0851   3.0852   3.0935
     3.0936   3.0968   3.1031   3.1050   3.1075   3.1110   3.1118   3.1121
     3.1143   3.1161   3.1172   3.1201   3.1223   3.1291   3.1309   3.1333
     3.1380   3.1394   3.1402   3.1429   3.1431   3.1481   3.1523   3.1540
     3.1565   3.1621   3.1632   3.1657   3.1675   3.1697   3.1697   3.1762
     3.1762   3.1773   3.1790   3.1803   3.1812   3.1813   3.1870   3.1882
     3.1910   3.1925   3.1930   3.1942   3.1948   3.1966   3.1968   3.1990
     3.1994   3.2023   3.2023   3.2066   3.2089   3.2090   3.2125   3.2141
     3.2154   3.2234   3.2250   3.2255   3.2284   3.2304   3.2320   3.2336
     3.2337   3.2373   3.2419   3.2454   3.2462   3.2478   3.2508   3.2560
     3.2569   3.2616   3.2630   3.2641   3.2675   3.2745   3.2795   3.2801
     3.2802   3.2818   3.2821   3.2843   3.2886   3.2908   3.2912   3.2915
     3.2927   3.2933   3.2936   3.2948   3.3003   3.3022   3.3063   3.3073
     3.3108   3.3109   3.3116   3.3117   3.3129   3.3161   3.3167   3.3180
     3.3219   3.3229   3.3246   3.3247   3.3251   3.3254   3.3264   3.3274
     3.3279   3.3293   3.3307   3.3320   3.3322   3.3335   3.3367   3.3376
     3.3421   3.3441   3.3476   3.3483   3.3494   3.3500   3.3507   3.3518
     3.3541   3.3552   3.3553   3.3608   3.3608   3.3687   3.3696   3.3733
     3.3734   3.3738   3.3759   3.3760   3.3780   3.3793   3.3798   3.3819
     3.3821   3.3842   3.3985   3.4050   3.4057   3.4062   3.4068   3.4097
     3.4119   3.4121   3.4139   3.4156   3.4163   3.4167   3.4215   3.4220
     3.4264   3.4273   3.4278   3.4312   3.4331   3.4348   3.4352   3.4389
     3.4391   3.4413   3.4416   3.4424   3.4479   3.4485   3.4490   3.4497
     3.4532   3.4542   3.4595   3.4595   3.4633   3.4635   3.4639   3.4644
     3.4650   3.4657   3.4693   3.4697   3.4733   3.4749   3.4751   3.4758
     3.4760   3.4767   3.4790   3.4791   3.4826   3.4827   3.4859   3.4861
     3.4862   3.4864   3.4873   3.4880   3.4912   3.4921   3.4963   3.4975
     3.5024   3.5064   3.5068   3.5073   3.5091   3.5108   3.5122   3.5126
     3.5136   3.5137   3.5151   3.5152   3.5186   3.5188   3.5191   3.5213
     3.5225   3.5268   3.5321   3.5335   3.5361   3.5366   3.5383   3.5388
     3.5391   3.5398   3.5438   3.5481   3.5508   3.5513   3.5539   3.5549
     3.5578   3.5581   3.5630   3.5661   3.5671   3.5690   3.5710   3.5738
     3.5749   3.5764   3.5766   3.5793   3.5802   3.5824   3.5852   3.5854
     3.5857   3.5860   3.5869   3.5909   3.5921   3.5923   3.5936   3.5939
     3.5953   3.5973   3.5984   3.6008   3.6018   3.6019   3.6020   3.6077
     3.6085   3.6090   3.6107   3.6150   3.6199   3.6212   3.6213   3.6240
     3.6245   3.6248   3.6253   3.6261   3.6265   3.6299   3.6327   3.6441
     3.6447   3.6449   3.6470   3.6472   3.6481   3.6483   3.6488   3.6489
     3.6520   3.6570   3.6596   3.6613   3.6621   3.6647   3.6650   3.6665
     3.6674   3.6682   3.6707   3.6744   3.6792   3.6801   3.6802   3.6848
     3.6856   3.6858   3.6889   3.6909   3.6925   3.6935   3.6942   3.6944
     3.6952   3.6963   3.6979   3.6992   3.7032   3.7045   3.7093   3.7117
     3.7152   3.7191   3.7202   3.7211   3.7212   3.7273   3.7306   3.7321
     3.7328   3.7345   3.7350   3.7438   3.7445   3.7455   3.7460   3.7468
     3.7496   3.7505   3.7542   3.7574   3.7576   3.7580   3.7583   3.7594
     3.7596   3.7602   3.7621   3.7657   3.7658   3.7715   3.7727   3.7733
     3.7745   3.7761   3.7761   3.7771   3.7790   3.7854   3.7860   3.7864
     3.7878   3.7886   3.7904   3.7905   3.7921   3.7942   3.7961   3.8016
     3.8051   3.8070   3.8101   3.8109   3.8140   3.8141   3.8141   3.8184
     3.8189   3.8190   3.8197   3.8234   3.8253   3.8267   3.8282   3.8334
     3.8359   3.8361   3.8368   3.8406   3.8435   3.8468   3.8487   3.8494
     3.8494   3.8504   3.8518   3.8526   3.8527   3.8530   3.8557   3.8558
     3.8565   3.8573   3.8577   3.8588   3.8605   3.8615   3.8648   3.8651
     3.8654   3.8664   3.8679   3.8683   3.8698   3.8699   3.8737   3.8739
     3.8752   3.8767   3.8869   3.8904   3.8916   3.8919   3.8923   3.8930
     3.8936   3.8942   3.8954   3.8954   3.8963   3.8976   3.8983   3.9004
     3.9019   3.9022   3.9045   3.9074   3.9081   3.9091   3.9103   3.9157
     3.9157   3.9166   3.9194   3.9198   3.9202   3.9207   3.9216   3.9227
     3.9235   3.9246   3.9262   3.9263   3.9279   3.9292   3.9309   3.9329
     3.9343   3.9347   3.9349   3.9370   3.9378   3.9388   3.9390   3.9410
     3.9449   3.9489   3.9496   3.9531   3.9540   3.9549   3.9551   3.9554
     3.9570   3.9612   3.9637   3.9643   3.9649   3.9649   3.9678   3.9692
     3.9694   3.9701   3.9711   3.9711   3.9724   3.9759   3.9771   3.9785
     3.9801   3.9803   3.9804   3.9836   3.9860   3.9866   3.9879   3.9918
     3.9925   3.9942   3.9945   3.9945   3.9964   3.9985   3.9987   4.0049
     4.0058   4.0058   4.0119   4.0123   4.0123   4.0127   4.0155   4.0157
     4.0161   4.0164   4.0194   4.0211   4.0214   4.0219   4.0237   4.0243
     4.0256   4.0263   4.0267   4.0271   4.0285   4.0288   4.0299   4.0330
     4.0352   4.0369   4.0392   4.0393   4.0419   4.0426   4.0445   4.0457
     4.0465   4.0465   4.0478   4.0503   4.0516   4.0523   4.0532   4.0535
     4.0548   4.0553   4.0580   4.0589   4.0604   4.0634   4.0636   4.0640
     4.0646   4.0664   4.0673   4.0683   4.0687   4.0698   4.0704   4.0711
     4.0733   4.0734   4.0754   4.0765   4.0788   4.0790   4.0802   4.0830
     4.0854   4.0859   4.0869   4.0903   4.0914   4.0917   4.0923   4.0955
     4.0970   4.0980   4.0987   4.0993   4.1009   4.1010   4.1023   4.1050
     4.1068   4.1073   4.1081   4.1085   4.1095   4.1098   4.1103   4.1142
     4.1143   4.1148   4.1176   4.1179   4.1199   4.1204   4.1248   4.1253
     4.1256   4.1298   4.1299   4.1319   4.1338   4.1349   4.1353   4.1356
     4.1359   4.1370   4.1386   4.1387   4.1394   4.1395   4.1400   4.1413
     4.1421   4.1423   4.1426   4.1448   4.1499   4.1501   4.1504   4.1549
     4.1557   4.1568   4.1571   4.1586   4.1588   4.1596   4.1616   4.1625
     4.1626   4.1640   4.1646   4.1651   4.1651   4.1656   4.1658   4.1666
     4.1675   4.1696   4.1704   4.1712   4.1719   4.1724   4.1724   4.1745
     4.1754   4.1755   4.1756   4.1759   4.1784   4.1787   4.1813   4.1817
     4.1818   4.1832   4.1833   4.1833   4.1855   4.1872   4.1875   4.1879
     4.1891   4.1907   4.1908   4.1910   4.1922   4.1937   4.1937   4.1942
     4.1952   4.1968   4.1973   4.1989   4.1996   4.1999   4.2000   4.2005
     4.2008   4.2009   4.2016   4.2022   4.2039   4.2040   4.2052   4.2059
     4.2068   4.2102   4.2119   4.2142   4.2147   4.2153   4.2162   4.2184
     4.2186   4.2188   4.2210   4.2249   4.2251   4.2265   4.2273   4.2310
     4.2318   4.2320   4.2320   4.2338   4.2359   4.2363   4.2369   4.2374
     4.2379   4.2389   4.2406   4.2443   4.2453   4.2467   4.2488   4.2503
     4.2530   4.2538   4.2544   4.2550   4.2561   4.2567   4.2577   4.2580
     4.2580   4.2596   4.2607   4.2613   4.2614   4.2621   4.2627   4.2635
     4.2645   4.2646   4.2647   4.2648   4.2652   4.2655   4.2679   4.2694
     4.2694   4.2702   4.2741   4.2747   4.2759   4.2781   4.2785   4.2795
     4.2796   4.2824   4.2828   4.2888   4.2897   4.2898   4.2898   4.2941
     4.2942   4.2951   4.2952   4.2962   4.2969   4.3004   4.3006   4.3029
     4.3059   4.3062   4.3094   4.3102   4.3114   4.3138   4.3138   4.3147
     4.3148   4.3154   4.3177   4.3186   4.3220   4.3225   4.3225   4.3243
     4.3243   4.3266   4.3276   4.3281   4.3322   4.3331   4.3353   4.3385
     4.3392   4.3396   4.3409   4.3439   4.3447   4.3482   4.3499   4.3506
     4.3538   4.3561   4.3568   4.3580   4.3583   4.3596   4.3627   4.3627
     4.3674   4.3689   4.3692   4.3694   4.3697   4.3705   4.3710   4.3719
     4.3721   4.3763   4.3781   4.3791   4.3808   4.3812   4.3814   4.3817
     4.3824   4.3829   4.3839   4.3854   4.3895   4.3900   4.3900   4.3902
     4.3910   4.3929   4.3939   4.3945   4.3986   4.3997   4.3997   4.4015
     4.4018   4.4034   4.4065   4.4067   4.4082   4.4096   4.4104   4.4112
     4.4117   4.4132   4.4218   4.4230   4.4256   4.4267   4.4267   4.4287
     4.4296   4.4299   4.4315   4.4336   4.4345   4.4364   4.4379   4.4388
     4.4401   4.4416   4.4422   4.4436   4.4443   4.4470   4.4493   4.4514
     4.4515   4.4527   4.4578   4.4592   4.4616   4.4626   4.4626   4.4631
     4.4656   4.4662   4.4668   4.4688   4.4690   4.4712   4.4714   4.4717
     4.4753   4.4783   4.4816   4.4817   4.4817   4.4843   4.4856   4.4877
     4.4908   4.4912   4.4918   4.4935   4.4941   4.4957   4.4958   4.4993
     4.5036   4.5047   4.5051   4.5085   4.5099   4.5129   4.5154   4.5190
     4.5199   4.5199   4.5225   4.5251   4.5281   4.5283   4.5299   4.5305
     4.5337   4.5344   4.5347   4.5357   4.5362   4.5362   4.5364   4.5383
     4.5408   4.5440   4.5484   4.5485   4.5501   4.5501   4.5543   4.5553
     4.5561   4.5613   4.5639   4.5662   4.5664   4.5686   4.5689   4.5745
     4.5769   4.5771   4.5779   4.5788   4.5790   4.5791   4.5806   4.5829
     4.5845   4.5865   4.5868   4.5905   4.5910   4.5916   4.5952   4.5956
     4.5975   4.5981   4.6014   4.6063   4.6079   4.6080   4.6096   4.6096
     4.6124   4.6152   4.6160   4.6168   4.6187   4.6220   4.6228   4.6279
     4.6309   4.6327   4.6327   4.6328   4.6363   4.6398   4.6436   4.6451
     4.6458   4.6477   4.6523   4.6543   4.6546   4.6568   4.6593   4.6622
     4.6623   4.6633   4.6646   4.6665   4.6669   4.6695   4.6721   4.6741
     4.6746   4.6794   4.6805   4.6843   4.6845   4.6861   4.6875   4.6881
     4.6918   4.6919   4.6928   4.6962   4.6976   4.6992   4.6993   4.6993
     4.7020   4.7021   4.7038   4.7087   4.7093   4.7122   4.7146   4.7155
     4.7176   4.7185   4.7191   4.7196   4.7212   4.7213   4.7254   4.7257
     4.7260   4.7273   4.7309   4.7320   4.7321   4.7356   4.7375   4.7448
     4.7458   4.7468   4.7481   4.7491   4.7516   4.7529   4.7557   4.7574
     4.7582   4.7608   4.7614   4.7631   4.7647   4.7651   4.7701   4.7723
     4.7729   4.7730   4.7759   4.7790   4.7843   4.7854   4.7918   4.7951
     4.7976   4.8015   4.8060   4.8105   4.8106   4.8107   4.8114   4.8116
     4.8124   4.8138   4.8152   4.8159   4.8178   4.8212   4.8220   4.8224
     4.8236   4.8240   4.8243   4.8256   4.8262   4.8277   4.8283   4.8290
     4.8302   4.8307   4.8356   4.8405   4.8424   4.8454   4.8461   4.8476
     4.8498   4.8498   4.8509   4.8533   4.8559   4.8573   4.8587   4.8597
     4.8616   4.8660   4.8703   4.8719   4.8722   4.8724   4.8739   4.8768
     4.8788   4.8793   4.8800   4.8812   4.8814   4.8822   4.8836   4.8860
     4.8885   4.8892   4.8920   4.8947   4.8953   4.8963   4.8992   4.9012
     4.9029   4.9030   4.9045   4.9058   4.9067   4.9077   4.9085   4.9095
     4.9101   4.9105   4.9108   4.9119   4.9125   4.9128   4.9186   4.9238
     4.9253   4.9265   4.9276   4.9280   4.9300   4.9355   4.9408   4.9414
     4.9423   4.9426   4.9465   4.9468   4.9477   4.9489   4.9506   4.9535
     4.9544   4.9554   4.9565   4.9569   4.9587   4.9598   4.9601   4.9621
     4.9635   4.9649   4.9690   4.9713   4.9719   4.9725   4.9732   4.9753
     4.9776   4.9779   4.9811   4.9813   4.9814   4.9820   4.9825   4.9838
     4.9900   4.9915   4.9915   4.9932   4.9958   4.9990   4.9992   5.0014
     5.0016   5.0020   5.0023   5.0042   5.0067   5.0079   5.0084   5.0091
     5.0114   5.0119   5.0123   5.0130   5.0148   5.0168   5.0174   5.0193
     5.0230   5.0250   5.0271   5.0295   5.0297   5.0301   5.0308   5.0315
     5.0318   5.0342   5.0343   5.0352   5.0354   5.0357   5.0375   5.0378
     5.0386   5.0425   5.0459   5.0466   5.0473   5.0540   5.0545   5.0559
     5.0567   5.0588   5.0607   5.0608   5.0633   5.0691   5.0698   5.0721
     5.0734   5.0745   5.0756   5.0785   5.0799   5.0823   5.0846   5.0847
     5.0853   5.0857   5.0867   5.0883   5.0936   5.0947   5.0949   5.0994
     5.0996   5.1039   5.1088   5.1096   5.1109   5.1117   5.1157   5.1177
     5.1190   5.1193   5.1205   5.1213   5.1226   5.1239   5.1244   5.1282
     5.1294   5.1317   5.1337   5.1353   5.1355   5.1380   5.1385   5.1401
     5.1407   5.1420   5.1424   5.1430   5.1487   5.1488   5.1514   5.1516
     5.1521   5.1541   5.1554   5.1600   5.1605   5.1612   5.1619   5.1734
     5.1787   5.1796   5.1805   5.1815   5.1819   5.1828   5.1836   5.1855
     5.1879   5.1882   5.1885   5.1887   5.1889   5.1902   5.1903   5.1908
     5.1910   5.1921   5.1932   5.1936   5.1994   5.2000   5.2003   5.2007
     5.2013   5.2014   5.2019   5.2045   5.2072   5.2129   5.2160   5.2162
     5.2192   5.2222   5.2230   5.2232   5.2237   5.2244   5.2246   5.2251
     5.2264   5.2287   5.2295   5.2296   5.2312   5.2318   5.2318   5.2322
     5.2364   5.2365   5.2384   5.2387   5.2392   5.2393   5.2404   5.2411
     5.2426   5.2447   5.2450   5.2464   5.2468   5.2498   5.2505   5.2507
     5.2513   5.2564   5.2587   5.2593   5.2595   5.2608   5.2616   5.2623
     5.2646   5.2651   5.2664   5.2676   5.2680   5.2690   5.2690   5.2704
     5.2734   5.2742   5.2742   5.2747   5.2748   5.2755   5.2770   5.2772
     5.2799   5.2831   5.2835   5.2856   5.2860   5.2860   5.2874   5.2888
     5.2964   5.2973   5.2986   5.2996   5.3007   5.3054   5.3122   5.3156
     5.3165   5.3191   5.3200   5.3221   5.3233   5.3252   5.3267   5.3271
     5.3275   5.3284   5.3310   5.3313   5.3323   5.3323   5.3345   5.3353
     5.3364   5.3373   5.3384   5.3404   5.3446   5.3448   5.3474   5.3490
     5.3494   5.3513   5.3518   5.3523   5.3524   5.3539   5.3545   5.3559
     5.3571   5.3583   5.3591   5.3592   5.3609   5.3614   5.3632   5.3644
     5.3673   5.3690   5.3696   5.3732   5.3748   5.3754   5.3754   5.3763
     5.3763   5.3769   5.3791   5.3797   5.3813   5.3823   5.3879   5.3885
     5.3899   5.3902   5.3917   5.3934   5.3939   5.3940   5.3953   5.3953
     5.3991   5.4030   5.4036   5.4067   5.4067   5.4087   5.4094   5.4132
     5.4136   5.4142   5.4169   5.4189   5.4193   5.4200   5.4214   5.4242
     5.4282   5.4296   5.4301   5.4317   5.4318   5.4319   5.4331   5.4344
     5.4354   5.4380   5.4398   5.4445   5.4456   5.4463   5.4479   5.4510
     5.4521   5.4528   5.4536   5.4536   5.4565   5.4579   5.4584   5.4594
     5.4609   5.4617   5.4625   5.4671   5.4685   5.4730   5.4744   5.4747
     5.4748   5.4758   5.4760   5.4786   5.4787   5.4794   5.4820   5.4836
     5.4864   5.4870   5.4889   5.4897   5.4931   5.4952   5.4952   5.4963
     5.4970   5.5073   5.5077   5.5078   5.5090   5.5111   5.5125   5.5138
     5.5165   5.5166   5.5187   5.5217   5.5246   5.5268   5.5277   5.5277
     5.5320   5.5324   5.5326   5.5335   5.5352   5.5352   5.5354   5.5357
     5.5362   5.5373   5.5393   5.5401   5.5427   5.5431   5.5456   5.5464
     5.5471   5.5473   5.5474   5.5507   5.5512   5.5521   5.5522   5.5551
     5.5556   5.5560   5.5566   5.5620   5.5631   5.5645   5.5661   5.5668
[...]
     atom  346 type  1   force =     0.00000242   -0.00019546    0.00055231
     atom  347 type  1   force =    -0.00000242   -0.00019546    0.00055231
     atom  348 type  1   force =    -0.00000180   -0.00019442    0.00055242
     atom  349 type  1   force =     0.00000183   -0.00019436    0.00055244
     atom  350 type  1   force =     0.00000182   -0.00019441    0.00055241
     atom  351 type  1   force =     0.00000244   -0.00019542    0.00055239
     atom  352 type  1   force =     0.00000245   -0.00019544    0.00055234
     atom  353 type  1   force =     0.00000000    0.00045222    0.00051999
     atom  354 type  1   force =     0.00000000    0.00045213    0.00051995
     atom  355 type  1   force =    -0.00000333    0.00045302    0.00052030
     atom  356 type  1   force =    -0.00000331    0.00045293    0.00052022
     atom  357 type  1   force =    -0.00000002    0.00045242    0.00051972
     atom  358 type  1   force =     0.00000330    0.00045299    0.00052024
     atom  359 type  1   force =     0.00000000    0.00045220    0.00052001
     atom  360 type  1   force =    -0.00000238   -0.00028531    0.00074759
     atom  361 type  1   force =    -0.00000244   -0.00028553    0.00074858
     atom  362 type  1   force =     0.00000240   -0.00028552    0.00074856
     atom  363 type  1   force =     0.00000000    0.00045217    0.00051999
     atom  364 type  1   force =    -0.00000332    0.00045292    0.00052024
     atom  365 type  1   force =    -0.00000332    0.00045295    0.00052024
     atom  366 type  1   force =    -0.00000003    0.00045237    0.00051961
     atom  367 type  1   force =    -0.00000002    0.00045235    0.00051963
     atom  368 type  1   force =     0.00000330    0.00045293    0.00052017
     atom  369 type  1   force =     0.00000328    0.00045295    0.00052019
     atom  370 type  1   force =     0.00000000    0.00045213    0.00051993
     atom  371 type  1   force =     0.00000000    0.00045213    0.00051990
     atom  372 type  1   force =     0.00000000    0.00045213    0.00051994
     atom  373 type  1   force =    -0.00000327    0.00045294    0.00052019
     atom  374 type  1   force =    -0.00000330    0.00045293    0.00052017
     atom  375 type  1   force =    -0.00000328    0.00045295    0.00052019
     atom  376 type  1   force =     0.00000002    0.00045234    0.00051965
     atom  377 type  1   force =     0.00000003    0.00045237    0.00051961
     atom  378 type  1   force =     0.00000333    0.00045302    0.00052030
     atom  379 type  1   force =     0.00000331    0.00045293    0.00052022
     atom  380 type  1   force =     0.00000332    0.00045292    0.00052024
     atom  381 type  1   force =    -0.00000238   -0.00028530    0.00074753
     atom  382 type  1   force =    -0.00000238   -0.00028529    0.00074760
     atom  383 type  1   force =    -0.00000237   -0.00028533    0.00074762
     atom  384 type  1   force =    -0.00000246   -0.00028555    0.00074854
     atom  385 type  1   force =    -0.00000244   -0.00028555    0.00074858
     atom  386 type  1   force =    -0.00000248   -0.00028558    0.00074858
     atom  387 type  1   force =     0.00000241   -0.00028553    0.00074850
     atom  388 type  1   force =     0.00000240   -0.00028553    0.00074858
     atom  389 type  1   force =     0.00000240   -0.00028558    0.00074857
     atom  390 type  1   force =     0.00000234   -0.00028528    0.00074755
     atom  391 type  1   force =     0.00000235   -0.00028530    0.00074748
     atom  392 type  1   force =     0.00000237   -0.00028531    0.00074752
     atom  393 type  1   force =     0.00000236   -0.00028534    0.00074753
     atom  394 type  1   force =    -0.00000234   -0.00028528    0.00074755
     atom  395 type  1   force =    -0.00000235   -0.00028530    0.00074748
     atom  396 type  1   force =    -0.00000237   -0.00028531    0.00074752
     atom  397 type  1   force =    -0.00000240   -0.00028552    0.00074856
     atom  398 type  1   force =    -0.00000241   -0.00028553    0.00074850
     atom  399 type  1   force =    -0.00000240   -0.00028553    0.00074858
     atom  400 type  1   force =     0.00000244   -0.00028553    0.00074858
     atom  401 type  1   force =     0.00000246   -0.00028555    0.00074854
     atom  402 type  1   force =     0.00000244   -0.00028555    0.00074858
     atom  403 type  1   force =     0.00000238   -0.00028531    0.00074759
     atom  404 type  1   force =     0.00000238   -0.00028530    0.00074753
     atom  405 type  1   force =     0.00000000    0.00045213    0.00051998
     atom  406 type  1   force =    -0.00000002    0.00045234    0.00051965
     atom  407 type  1   force =     0.00000327    0.00045294    0.00052019
     atom  408 type  1   force =    -0.00000330    0.00045299    0.00052024
     atom  409 type  1   force =     0.00000002    0.00045242    0.00051972
     atom  410 type  1   force =    -0.00000236   -0.00028534    0.00074753
     atom  411 type  1   force =    -0.00000240   -0.00028558    0.00074857
     atom  412 type  1   force =     0.00000238   -0.00028529    0.00074760
     atom  413 type  1   force =     0.00000002    0.00045235    0.00051963
     atom  414 type  1   force =     0.00000332    0.00045295    0.00052024
     atom  415 type  1   force =     0.00000248   -0.00028558    0.00074858
     atom  416 type  1   force =     0.00000237   -0.00028533    0.00074762
     atom  417 type  1   force =    -0.00000163   -0.00056138    0.00387673
     atom  418 type  1   force =    -0.00000114   -0.00056179    0.00387611
     atom  419 type  1   force =     0.00000105   -0.00056180    0.00387606
     atom  420 type  1   force =     0.00000160   -0.00056152    0.00387655
     atom  421 type  1   force =    -0.00000160   -0.00056152    0.00387655
     atom  422 type  1   force =    -0.00000102   -0.00056193    0.00387596
     atom  423 type  1   force =     0.00000115   -0.00056188    0.00387602
     atom  424 type  1   force =     0.00000165   -0.00056146    0.00387670
     atom  425 type  1   force =    -0.00000264    0.00053452   -0.00454285
     atom  426 type  1   force =    -0.00000007    0.00053562   -0.00454355
     atom  427 type  1   force =     0.00000256    0.00053461   -0.00454299
     atom  428 type  1   force =     0.00000000    0.00053349   -0.00454246
     atom  429 type  1   force =    -0.00000256    0.00053450   -0.00454304
     atom  430 type  1   force =     0.00000006    0.00053546   -0.00454357
     atom  431 type  1   force =     0.00000263    0.00053450   -0.00454287
     atom  432 type  1   force =    -0.00000165   -0.00056146    0.00387670
     atom  433 type  1   force =    -0.00000160   -0.00056153    0.00387670
     atom  434 type  1   force =    -0.00000161   -0.00056136    0.00387669
     atom  435 type  1   force =    -0.00000115   -0.00056188    0.00387602
     atom  436 type  1   force =    -0.00000114   -0.00056198    0.00387605
     atom  437 type  1   force =     0.00000105   -0.00056191    0.00387599
     atom  438 type  1   force =     0.00000102   -0.00056193    0.00387596
     atom  439 type  1   force =     0.00000158   -0.00056145    0.00387651
     atom  440 type  1   force =     0.00000158   -0.00056137    0.00387656
     atom  441 type  1   force =    -0.00000158   -0.00056145    0.00387651
     atom  442 type  1   force =    -0.00000105   -0.00056191    0.00387599
     atom  443 type  1   force =     0.00000114   -0.00056198    0.00387605
     atom  444 type  1   force =    -0.00000263    0.00053450   -0.00454287
     atom  445 type  1   force =    -0.00000265    0.00053460   -0.00454283
     atom  446 type  1   force =    -0.00000265    0.00053455   -0.00454286
     atom  447 type  1   force =    -0.00000006    0.00053546   -0.00454357
     atom  448 type  1   force =    -0.00000004    0.00053549   -0.00454352
     atom  449 type  1   force =     0.00000256    0.00053450   -0.00454304
     atom  450 type  1   force =     0.00000256    0.00053452   -0.00454296
     atom  451 type  1   force =     0.00000000    0.00053337   -0.00454250
     atom  452 type  1   force =     0.00000000    0.00053336   -0.00454248
     atom  453 type  1   force =    -0.00000256    0.00053461   -0.00454299
     atom  454 type  1   force =     0.00000007    0.00053562   -0.00454355
     atom  455 type  1   force =     0.00000265    0.00053460   -0.00454283
     atom  456 type  1   force =     0.00000000    0.00053334   -0.00454234
     atom  457 type  1   force =    -0.00000112   -0.00056182    0.00387611
     atom  458 type  1   force =     0.00000104   -0.00056181    0.00387605
     atom  459 type  1   force =     0.00000159   -0.00056139    0.00387659
     atom  460 type  1   force =    -0.00000158   -0.00056137    0.00387656
     atom  461 type  1   force =    -0.00000159   -0.00056139    0.00387659
     atom  462 type  1   force =    -0.00000105   -0.00056180    0.00387606
     atom  463 type  1   force =    -0.00000104   -0.00056181    0.00387605
     atom  464 type  1   force =     0.00000114   -0.00056179    0.00387611
     atom  465 type  1   force =     0.00000112   -0.00056182    0.00387611
     atom  466 type  1   force =     0.00000160   -0.00056153    0.00387670
     atom  467 type  1   force =     0.00000163   -0.00056138    0.00387673
     atom  468 type  1   force =     0.00000161   -0.00056136    0.00387669
     atom  469 type  1   force =    -0.00000004    0.00053556   -0.00454354
     atom  470 type  1   force =     0.00000255    0.00053458   -0.00454294
     atom  471 type  1   force =     0.00000000    0.00053341   -0.00454244
     atom  472 type  1   force =    -0.00000256    0.00053452   -0.00454296
     atom  473 type  1   force =    -0.00000255    0.00053458   -0.00454294
     atom  474 type  1   force =     0.00000004    0.00053549   -0.00454352
     atom  475 type  1   force =     0.00000004    0.00053556   -0.00454354
     atom  476 type  1   force =     0.00000264    0.00053452   -0.00454285
     atom  477 type  1   force =     0.00000265    0.00053455   -0.00454286
     atom  478 type  1   force =     0.00000000    0.00053343   -0.00454236
     atom  479 type  1   force =     0.00000000    0.00053335   -0.00454232
     atom  480 type  1   force =     0.00000000    0.00053343   -0.00454233
     atom  481 type  1   force =    -0.00000274   -0.00334986    0.01658081
     atom  482 type  1   force =    -0.00000011   -0.00334991    0.01658002
     atom  483 type  1   force =     0.00000257   -0.00334978    0.01658053
     atom  484 type  1   force =     0.00000000   -0.00334946    0.01658213
     atom  485 type  1   force =    -0.00000257   -0.00334978    0.01658053
     atom  486 type  1   force =     0.00000015   -0.00334994    0.01657990
     atom  487 type  1   force =     0.00000267   -0.00334981    0.01658070
     atom  488 type  1   force =     0.00000000   -0.00334951    0.01658241
     atom  489 type  1   force =    -0.00000127    0.00158996    0.00966653
     atom  490 type  1   force =    -0.00000137    0.00159137    0.00966319
     atom  491 type  1   force =     0.00000122    0.00159133    0.00966302
     atom  492 type  1   force =     0.00000117    0.00159007    0.00966620
     atom  493 type  1   force =    -0.00000116    0.00159004    0.00966610
     atom  494 type  1   force =    -0.00000121    0.00159138    0.00966286
     atom  495 type  1   force =     0.00000147    0.00159133    0.00966302
     atom  496 type  1   force =    -0.00000267   -0.00334981    0.01658070
     atom  497 type  1   force =    -0.00000274   -0.00334985    0.01658068
     atom  498 type  1   force =    -0.00000267   -0.00334998    0.01658069
     atom  499 type  1   force =    -0.00000015   -0.00334994    0.01657990
     atom  500 type  1   force =    -0.00000017   -0.00334995    0.01657990
     atom  501 type  1   force =     0.00000257   -0.00334986    0.01658034
     atom  502 type  1   force =     0.00000260   -0.00334985    0.01658055
     atom  503 type  1   force =     0.00000000   -0.00334948    0.01658213
     atom  504 type  1   force =     0.00000000   -0.00334952    0.01658215
     atom  505 type  1   force =    -0.00000257   -0.00334986    0.01658034
     atom  506 type  1   force =     0.00000017   -0.00334995    0.01657990
     atom  507 type  1   force =     0.00000274   -0.00334985    0.01658068
     atom  508 type  1   force =    -0.00000131    0.00159009    0.00966634
     atom  509 type  1   force =    -0.00000128    0.00159001    0.00966638
     atom  510 type  1   force =    -0.00000122    0.00159000    0.00966636
     atom  511 type  1   force =    -0.00000147    0.00159133    0.00966302
     atom  512 type  1   force =    -0.00000142    0.00159129    0.00966321
     atom  513 type  1   force =     0.00000121    0.00159138    0.00966286
     atom  514 type  1   force =     0.00000116    0.00159132    0.00966309
     atom  515 type  1   force =     0.00000116    0.00159004    0.00966610
     atom  516 type  1   force =     0.00000117    0.00159007    0.00966615
     atom  517 type  1   force =    -0.00000117    0.00159007    0.00966620
     atom  518 type  1   force =    -0.00000122    0.00159133    0.00966302
     atom  519 type  1   force =     0.00000137    0.00159137    0.00966319
     atom  520 type  1   force =     0.00000131    0.00159009    0.00966634
     atom  521 type  1   force =    -0.00000010   -0.00335000    0.01657997
     atom  522 type  1   force =     0.00000250   -0.00334988    0.01658057
     atom  523 type  1   force =     0.00000000   -0.00334955    0.01658212
     atom  524 type  1   force =    -0.00000260   -0.00334985    0.01658055
     atom  525 type  1   force =    -0.00000250   -0.00334988    0.01658057
     atom  526 type  1   force =     0.00000011   -0.00334991    0.01658002
     atom  527 type  1   force =     0.00000010   -0.00335000    0.01657997
     atom  528 type  1   force =     0.00000274   -0.00334986    0.01658081
     atom  529 type  1   force =     0.00000267   -0.00334998    0.01658069
     atom  530 type  1   force =     0.00000000   -0.00334948    0.01658253
     atom  531 type  1   force =     0.00000000   -0.00334953    0.01658264
     atom  532 type  1   force =     0.00000000   -0.00334958    0.01658250
     atom  533 type  1   force =    -0.00000141    0.00159130    0.00966311
     atom  534 type  1   force =     0.00000122    0.00159130    0.00966295
     atom  535 type  1   force =     0.00000116    0.00158998    0.00966617
     atom  536 type  1   force =    -0.00000117    0.00159007    0.00966615
     atom  537 type  1   force =    -0.00000116    0.00158998    0.00966617
     atom  538 type  1   force =    -0.00000116    0.00159132    0.00966309
     atom  539 type  1   force =    -0.00000122    0.00159130    0.00966295
     atom  540 type  1   force =     0.00000142    0.00159129    0.00966321
     atom  541 type  1   force =     0.00000141    0.00159130    0.00966311
     atom  542 type  1   force =     0.00000128    0.00159001    0.00966638
     atom  543 type  1   force =     0.00000127    0.00158996    0.00966653
     atom  544 type  1   force =     0.00000122    0.00159000    0.00966636
     atom  545 type  1   force =    -0.00000041    0.00164789   -0.02672803
     atom  546 type  1   force =     0.00000099    0.00164553   -0.02673131
     atom  547 type  1   force =    -0.00000138    0.00164568   -0.02673142
     atom  548 type  1   force =     0.00000018    0.00164797   -0.02672805
     atom  549 type  1   force =    -0.00000018    0.00164797   -0.02672805
     atom  550 type  1   force =     0.00000142    0.00164527   -0.02673119
     atom  551 type  1   force =    -0.00000091    0.00164529   -0.02673135
     atom  552 type  1   force =     0.00000039    0.00164777   -0.02672796
     atom  553 type  1   force =    -0.00000039    0.00164777   -0.02672796
     atom  554 type  1   force =    -0.00000036    0.00164792   -0.02672808
     atom  555 type  1   force =    -0.00000047    0.00164781   -0.02672798
     atom  556 type  1   force =     0.00000091    0.00164529   -0.02673135
     atom  557 type  1   force =     0.00000096    0.00164545   -0.02673159
     atom  558 type  1   force =    -0.00000142    0.00164527   -0.02673119
     atom  559 type  1   force =    -0.00000140    0.00164548   -0.02673121
     atom  560 type  1   force =     0.00000042    0.00164790   -0.02672795
     atom  561 type  1   force =     0.00000014    0.00164782   -0.02672817
     atom  562 type  1   force =    -0.00000042    0.00164790   -0.02672795
     atom  563 type  1   force =     0.00000138    0.00164568   -0.02673142
     atom  564 type  1   force =    -0.00000096    0.00164545   -0.02673159
     atom  565 type  1   force =     0.00000029    0.00164783   -0.02672804
     atom  566 type  1   force =    -0.00000029    0.00164783   -0.02672804
     atom  567 type  1   force =     0.00000132    0.00164540   -0.02673138
     atom  568 type  1   force =    -0.00000099    0.00164553   -0.02673131
     atom  569 type  1   force =    -0.00000102    0.00164531   -0.02673128
     atom  570 type  1   force =     0.00000041    0.00164789   -0.02672803
     atom  571 type  1   force =     0.00000047    0.00164781   -0.02672798
     atom  572 type  1   force =     0.00000102    0.00164531   -0.02673128
     atom  573 type  1   force =    -0.00000132    0.00164540   -0.02673138
     atom  574 type  1   force =    -0.00000014    0.00164782   -0.02672817
     atom  575 type  1   force =     0.00000140    0.00164548   -0.02673121
     atom  576 type  1   force =     0.00000036    0.00164792   -0.02672808

     Total force =     0.269836     Total SCF correction =     0.000883
 
     init_run     :    233.82s CPU    126.35s WALL (       1 calls)
     electrons    :  17751.24s CPU   9449.80s WALL (       1 calls)
     forces       :    111.44s CPU     70.34s WALL (       1 calls)

     Called by init_run:
     wfcinit      :    225.50s CPU    118.98s WALL (       1 calls)
     potinit      :      0.59s CPU      0.33s WALL (       1 calls)
     hinit0       :      1.46s CPU      0.86s WALL (       1 calls)

     Called by electrons:
     c_bands      :  16458.83s CPU   8752.91s WALL (      25 calls)
     sum_band     :   1272.99s CPU    685.44s WALL (      25 calls)
     v_of_rho     :      5.85s CPU      3.12s WALL (      25 calls)
     newd         :     11.44s CPU      7.26s WALL (      25 calls)
     mix_rho      :      1.43s CPU      0.76s WALL (      25 calls)

     Called by c_bands:
     init_us_2    :     15.65s CPU      8.08s WALL (     104 calls)
     cegterg      :  16062.22s CPU   8392.21s WALL (      51 calls)

     Called by *egterg:
     cdiaghg      :   3826.62s CPU   2009.34s WALL (     514 calls)
     h_psi        :   5432.55s CPU   2848.29s WALL (     518 calls)
     s_psi        :   1274.72s CPU    652.67s WALL (     518 calls)
     g_psi        :      4.54s CPU      2.29s WALL (     465 calls)

     Called by h_psi:
     h_psi:calbec :   1315.62s CPU    741.27s WALL (     518 calls)
     vloc_psi     :   2907.43s CPU   1482.18s WALL (     518 calls)
     add_vuspsi   :   1201.14s CPU    617.92s WALL (     518 calls)

     General routines
     calbec       :   1962.94s CPU   1110.20s WALL (     576 calls)
     fft          :      6.40s CPU      3.31s WALL (     335 calls)
     ffts         :      6.12s CPU      3.12s WALL (      50 calls)
     fftw         :   3448.21s CPU   1757.72s WALL ( 1065692 calls)
     interpolate  :      0.74s CPU      0.38s WALL (      25 calls)
 
     Parallel routines
     fft_scatt_xy :    134.51s CPU     67.88s WALL ( 1066077 calls)
     fft_scatt_yz :   2833.84s CPU   1447.44s WALL ( 1066077 calls)
 
     PWSCF        :      5h 1m CPU      2h40m WALL

 
   This run was terminated on:  21:34:27  16Sep2021            

=------------------------------------------------------------------------------=
   JOB DONE.
=------------------------------------------------------------------------------=
