
     Program PWSCF v.6.6 starts on  8Sep2021 at  4:40:25 

     This program is part of the open-source Quantum ESPRESSO suite
     for quantum simulation of materials; please cite
         "P. Giannozzi et al., J. Phys.:Condens. Matter 21 395502 (2009);
         "P. Giannozzi et al., J. Phys.:Condens. Matter 29 465901 (2017);
          URL http://www.quantum-espresso.org", 
     in publications or presentations arising from this work. More details at
     http://www.quantum-espresso.org/quote

     Parallel version (MPI & OpenMP), running on     192 processor cores
     Number of MPI processes:                96
     Threads/MPI process:                     2

     MPI processes distributed on     4 nodes
     R & G space division:  proc/nbgrp/npool/nimage =      96
     Fft bands division:     nmany     =       1
     Reading input from ../inputs/input_ausurf_144

     Current dimensions of program PWSCF are:
     Max number of different atomic species (ntypx) = 10
     Max number of k-points (npk) =  40000
     Max angular momentum in pseudopotentials (lmaxx) =  3

     Subspace diagonalization in iterative solution of the eigenvalue problem:
     one sub-group per band group will be used
     ELPA distributed-memory algorithm (size of sub-group:  9*  9 procs)

     Found symmetry operation: I + (  0.2500  0.0000  0.0000)
     This is a supercell, fractional translations are disabled
 
     Parallelization info
     --------------------
     sticks:   dense  smooth     PW     G-vecs:    dense   smooth      PW
     Min         124      57     15                29674     9163    1237
     Max         125      58     16                29701     9183    1255
     Sum       11991    5473   1449              2850479   881145  119607
 

     Title: 
      Ausurf                                                                    


     bravais-lattice index     =            8
     lattice parameter (alat)  =      22.2988  a.u.
     unit-cell volume          =   25777.9743 (a.u.)^3
     number of atoms/cell      =          144
     number of atomic types    =            1
     number of electrons       =      1584.00
     number of Kohn-Sham states=          950
     kinetic-energy cutoff     =      40.0000  Ry
     charge density cutoff     =     350.0000  Ry
     convergence threshold     =      1.0E-06
     mixing beta               =       0.7000
     number of iterations used =            8  TF        mixing
     Exchange-correlation=  SLA  PW   PBE  PBE
                           (   1   4   3   4   0   0   0)

     celldm(1)=  22.298768  celldm(2)=   0.866025  celldm(3)=   2.684575
     celldm(4)=   0.000000  celldm(5)=   0.000000  celldm(6)=   0.000000

     crystal axes: (cart. coord. in units of alat)
               a(1) = (   1.000000   0.000000   0.000000 )  
               a(2) = (   0.000000   0.866025   0.000000 )  
               a(3) = (   0.000000   0.000000   2.684575 )  

     reciprocal axes: (cart. coord. in units 2 pi/alat)
               b(1) = (  1.000000  0.000000  0.000000 )  
               b(2) = (  0.000000  1.154701  0.000000 )  
               b(3) = (  0.000000  0.000000  0.372498 )  


     PseudoPot. # 1 for Au read from file:
     /marconi/home/userexternal/czeni000/dft_src/pseudo/Au.pbe-nd-van.UPF
     MD5 check sum: deb5c07af10777505a79e28f5b4b4115
     Pseudo is Ultrasoft + core correction, Zval = 11.0
     Generated by new atomic code, or converted to UPF format
     Using radial grid of  985 points,  3 beta functions with: 
                l(1) =   1
                l(2) =   2
                l(3) =   2
     Q(r) pseudized with  8 coefficients,  rinner =    1.100   1.100   1.100
                                                       1.100   1.100

     atomic species   valence    mass     pseudopotential
        Au            11.00   196.96000     Au( 1.00)

      2 Sym. Ops. (no inversion) found



   Cartesian axes

     site n.     atom                  positions (alat units)
         1           Au  tau(   1) = (   0.0000000   0.0000000   0.0000000  )
         2           Au  tau(   2) = (   0.2500000   0.0000000   0.0000000  )
         3           Au  tau(   3) = (   0.5000000   0.0000000   0.0000000  )
         4           Au  tau(   4) = (   0.0000000   0.4330127   0.0000000  )
         5           Au  tau(   5) = (   0.7500000   0.0000000   0.0000000  )
         6           Au  tau(   6) = (   0.2500000   0.4330127   0.0000000  )
         7           Au  tau(   7) = (   0.5000000   0.4330127   0.0000000  )
         8           Au  tau(   8) = (   0.7500000   0.4330127   0.0000000  )
         9           Au  tau(   9) = (   0.1250000   0.0721688   0.2041242  )
        10           Au  tau(  10) = (   0.3750000   0.0721688   0.2041242  )
        11           Au  tau(  11) = (   0.6250000   0.0721688   0.2041242  )
        12           Au  tau(  12) = (   0.1250000   0.5051815   0.2041242  )
        13           Au  tau(  13) = (   0.6250000   0.5051815   0.2041242  )
        14           Au  tau(  14) = (   0.8750000   0.0721688   0.2041242  )
        15           Au  tau(  15) = (   0.3750000   0.5051815   0.2041242  )
        16           Au  tau(  16) = (   0.8750000   0.5051815   0.2041242  )
        17           Au  tau(  17) = (   0.2500000   0.2886752   0.2041242  )
        18           Au  tau(  18) = (   0.2500000   0.7216878   0.2041242  )
        19           Au  tau(  19) = (   1.0000000   0.2886752   0.2041242  )
        20           Au  tau(  20) = (   0.5000000   0.2886752   0.2041242  )
        21           Au  tau(  21) = (   0.7500000   0.2886752   0.2041242  )
        22           Au  tau(  22) = (   0.5000000   0.7216878   0.2041242  )
        23           Au  tau(  23) = (   0.7500000   0.7216878   0.2041242  )
        24           Au  tau(  24) = (   1.0000000   0.7216878   0.2041242  )
        25           Au  tau(  25) = (   0.2500000   0.1443375   0.4082483  )
        26           Au  tau(  26) = (   0.6250000   0.3608439   0.4082483  )
        27           Au  tau(  27) = (   0.5000000   0.1443375   0.4082483  )
        28           Au  tau(  28) = (   0.7500000   0.1443375   0.4082483  )
        29           Au  tau(  29) = (   0.1250000   0.3608439   0.4082483  )
        30           Au  tau(  30) = (   0.3750000   0.3608439   0.4082483  )
        31           Au  tau(  31) = (   0.2500000   0.5773503   0.4082483  )
        32           Au  tau(  32) = (   0.5000000   0.5773503   0.4082483  )
        33           Au  tau(  33) = (   0.7500000   0.5773503   0.4082483  )
        34           Au  tau(  34) = (   1.0000000   0.1443375   0.4082483  )
        35           Au  tau(  35) = (   0.1250000   0.7938566   0.4082483  )
        36           Au  tau(  36) = (   0.3750000   0.7938566   0.4082483  )
        37           Au  tau(  37) = (   0.8750000   0.3608439   0.4082483  )
        38           Au  tau(  38) = (   0.8750000   0.7938566   0.4082483  )
        39           Au  tau(  39) = (   1.0000000   0.5773503   0.4082483  )
        40           Au  tau(  40) = (   0.6250000   0.7938566   0.4082483  )
        41           Au  tau(  41) = (   0.6250000   0.2165064   0.6123725  )
        42           Au  tau(  42) = (   0.0000000   0.0000000   0.6123725  )
        43           Au  tau(  43) = (   0.2500000   0.0000000   0.6123725  )
        44           Au  tau(  44) = (   0.5000000   0.0000000   0.6123725  )
        45           Au  tau(  45) = (   0.1250000   0.2165064   0.6123725  )
        46           Au  tau(  46) = (   0.2500000   0.4330127   0.6123725  )
        47           Au  tau(  47) = (   0.5000000   0.4330127   0.6123725  )
        48           Au  tau(  48) = (   0.7500000   0.4330127   0.6123725  )
        49           Au  tau(  49) = (   0.1250000   0.6495191   0.6123725  )
        50           Au  tau(  50) = (   0.3750000   0.2165064   0.6123725  )
        51           Au  tau(  51) = (   0.3750000   0.6495191   0.6123725  )
        52           Au  tau(  52) = (   0.6250000   0.6495191   0.6123725  )
        53           Au  tau(  53) = (   0.8750000   0.2165064   0.6123725  )
        54           Au  tau(  54) = (   0.0000000   0.4330127   0.6123725  )
        55           Au  tau(  55) = (   0.7500000   0.0000000   0.6123725  )
        56           Au  tau(  56) = (   0.8750000   0.6495191   0.6123725  )
        57           Au  tau(  57) = (   0.1250000   0.5051815   0.8164966  )
        58           Au  tau(  58) = (   0.8750000   0.0721688   0.8164966  )
        59           Au  tau(  59) = (   0.5000000   0.2886752   0.8164966  )
        60           Au  tau(  60) = (   0.1250000   0.0721688   0.8164966  )
        61           Au  tau(  61) = (   0.3750000   0.0721688   0.8164966  )
        62           Au  tau(  62) = (   0.3750000   0.5051815   0.8164966  )
        63           Au  tau(  63) = (   0.6250000   0.0721688   0.8164966  )
        64           Au  tau(  64) = (   0.2500000   0.2886752   0.8164966  )
        65           Au  tau(  65) = (   0.2500000   0.7216878   0.8164966  )
        66           Au  tau(  66) = (   0.5000000   0.7216878   0.8164966  )
        67           Au  tau(  67) = (   0.7500000   0.2886752   0.8164966  )
        68           Au  tau(  68) = (   1.0000000   0.2886752   0.8164966  )
        69           Au  tau(  69) = (   0.6250000   0.5051815   0.8164966  )
        70           Au  tau(  70) = (   0.8750000   0.5051815   0.8164966  )
        71           Au  tau(  71) = (   0.7500000   0.7216878   0.8164966  )
        72           Au  tau(  72) = (   1.0000000   0.7216878   0.8164966  )
        73           Au  tau(  73) = (   0.2500000   0.1443375   1.0206208  )
        74           Au  tau(  74) = (   0.5000000   0.1443375   1.0206208  )
        75           Au  tau(  75) = (   0.7500000   0.1443375   1.0206208  )
        76           Au  tau(  76) = (   0.1250000   0.3608439   1.0206208  )
        77           Au  tau(  77) = (   0.3750000   0.3608439   1.0206208  )
        78           Au  tau(  78) = (   0.3750000   0.7938566   1.0206208  )
        79           Au  tau(  79) = (   0.2500000   0.5773503   1.0206208  )
        80           Au  tau(  80) = (   0.5000000   0.5773503   1.0206208  )
        81           Au  tau(  81) = (   0.7500000   0.5773503   1.0206208  )
        82           Au  tau(  82) = (   1.0000000   0.1443375   1.0206208  )
        83           Au  tau(  83) = (   1.0000000   0.5773503   1.0206208  )
        84           Au  tau(  84) = (   0.1250000   0.7938566   1.0206208  )
        85           Au  tau(  85) = (   0.6250000   0.3608439   1.0206208  )
        86           Au  tau(  86) = (   0.6250000   0.7938566   1.0206208  )
        87           Au  tau(  87) = (   0.8750000   0.3608439   1.0206208  )
        88           Au  tau(  88) = (   0.8750000   0.7938566   1.0206208  )
        89           Au  tau(  89) = (   0.0000000   0.0000000   1.2247448  )
        90           Au  tau(  90) = (   0.0000000   0.4330127   1.2247448  )
        91           Au  tau(  91) = (   0.2500000   0.0000000   1.2247448  )
        92           Au  tau(  92) = (   0.2500000   0.4330127   1.2247448  )
        93           Au  tau(  93) = (   0.5000000   0.0000000   1.2247448  )
        94           Au  tau(  94) = (   0.7500000   0.0000000   1.2247448  )
        95           Au  tau(  95) = (   0.1250000   0.2165064   1.2247448  )
        96           Au  tau(  96) = (   0.3750000   0.2165064   1.2247448  )
        97           Au  tau(  97) = (   0.6250000   0.2165064   1.2247448  )
        98           Au  tau(  98) = (   0.1250000   0.6495191   1.2247448  )
        99           Au  tau(  99) = (   0.3750000   0.6495191   1.2247448  )
       100           Au  tau( 100) = (   0.6250000   0.6495191   1.2247448  )
       101           Au  tau( 101) = (   0.8750000   0.2165064   1.2247448  )
       102           Au  tau( 102) = (   0.8750000   0.6495191   1.2247448  )
       103           Au  tau( 103) = (   0.5000000   0.4330127   1.2247448  )
       104           Au  tau( 104) = (   0.7500000   0.4330127   1.2247448  )
       105           Au  tau( 105) = (   0.8750000   0.5051815   1.4288690  )
       106           Au  tau( 106) = (   0.5000000   0.7216878   1.4288690  )
       107           Au  tau( 107) = (   0.7500000   0.7216878   1.4288690  )
       108           Au  tau( 108) = (   1.0000000   0.7216878   1.4288690  )
       109           Au  tau( 109) = (   0.1250000   0.0721688   1.4288690  )
       110           Au  tau( 110) = (   0.1250000   0.5051815   1.4288690  )
       111           Au  tau( 111) = (   0.3750000   0.0721688   1.4288690  )
       112           Au  tau( 112) = (   0.3750000   0.5051815   1.4288690  )
       113           Au  tau( 113) = (   0.6250000   0.0721688   1.4288690  )
       114           Au  tau( 114) = (   0.6250000   0.5051815   1.4288690  )
       115           Au  tau( 115) = (   0.8750000   0.0721688   1.4288690  )
       116           Au  tau( 116) = (   0.2500000   0.2886752   1.4288690  )
       117           Au  tau( 117) = (   0.2500000   0.7216878   1.4288690  )
       118           Au  tau( 118) = (   0.5000000   0.2886752   1.4288690  )
       119           Au  tau( 119) = (   0.7500000   0.2886752   1.4288690  )
       120           Au  tau( 120) = (   1.0000000   0.2886752   1.4288690  )
       121           Au  tau( 121) = (   0.7500000   0.5773503   1.6329931  )
       122           Au  tau( 122) = (   1.0000000   0.5773503   1.6329931  )
       123           Au  tau( 123) = (   0.3750000   0.7938566   1.6329931  )
       124           Au  tau( 124) = (   0.6250000   0.7938566   1.6329931  )
       125           Au  tau( 125) = (   0.8750000   0.7938566   1.6329931  )
       126           Au  tau( 126) = (   0.2500000   0.1443375   1.6329931  )
       127           Au  tau( 127) = (   0.2500000   0.5773503   1.6329931  )
       128           Au  tau( 128) = (   0.5000000   0.1443375   1.6329931  )
       129           Au  tau( 129) = (   0.5000000   0.5773503   1.6329931  )
       130           Au  tau( 130) = (   0.7500000   0.1443375   1.6329931  )
       131           Au  tau( 131) = (   1.0000000   0.1443375   1.6329931  )
       132           Au  tau( 132) = (   0.1250000   0.3608439   1.6329931  )
       133           Au  tau( 133) = (   0.1250000   0.7938566   1.6329931  )
       134           Au  tau( 134) = (   0.3750000   0.3608439   1.6329931  )
       135           Au  tau( 135) = (   0.6250000   0.3608439   1.6329931  )
       136           Au  tau( 136) = (   0.8750000   0.3608439   1.6329931  )
       137           Au  tau( 137) = (   0.6250000   0.6495191   1.8371173  )
       138           Au  tau( 138) = (   0.8750000   0.6495191   1.8371173  )
       139           Au  tau( 139) = (   0.1250000   0.2165064   1.8371173  )
       140           Au  tau( 140) = (   0.1250000   0.6495191   1.8371173  )
       141           Au  tau( 141) = (   0.3750000   0.2165064   1.8371173  )
       142           Au  tau( 142) = (   0.3750000   0.6495191   1.8371173  )
       143           Au  tau( 143) = (   0.6250000   0.2165064   1.8371173  )
       144           Au  tau( 144) = (   0.8750000   0.2165064   1.8371173  )

     number of k points=     9  Marzari-Vanderbilt smearing, width (Ry)=  0.0500
                       cart. coord. in units 2pi/alat
        k(    1) = (   0.0833333   0.0962250   0.0000000), wk =   0.2222222
        k(    2) = (   0.0833333   0.2886751   0.0000000), wk =   0.2222222
        k(    3) = (   0.0833333   0.4811252   0.0000000), wk =   0.2222222
        k(    4) = (   0.2500000   0.0962250   0.0000000), wk =   0.2222222
        k(    5) = (   0.2500000   0.2886751   0.0000000), wk =   0.2222222
        k(    6) = (   0.2500000   0.4811252   0.0000000), wk =   0.2222222
        k(    7) = (   0.4166667   0.0962250   0.0000000), wk =   0.2222222
        k(    8) = (   0.4166667   0.2886751   0.0000000), wk =   0.2222222
        k(    9) = (   0.4166667   0.4811252   0.0000000), wk =   0.2222222

     Dense  grid:  2850479 G-vectors     FFT dimensions: ( 135, 120, 360)

     Smooth grid:   881145 G-vectors     FFT dimensions: (  90,  80, 243)

     Estimated max dynamical RAM per process >     459.49 MB

     Estimated total dynamical RAM >      43.08 GB

     Initial potential from superposition of free atoms

     starting charge 1582.32788, renormalised to 1584.00000

     negative rho (up, down):  3.841E+00 0.000E+00
     Starting wfcs are 1296 randomized atomic wfcs

     total cpu time spent up to now is       35.3 secs

     Self-consistent Calculation

     iteration #  1     ecut=    40.00 Ry     beta= 0.70
     Davidson diagonalization with overlap
     ethr =  1.00E-02,  avg # of iterations =  2.8

     Threshold (ethr) on eigenvalues was too large:
     Diagonalizing with lowered threshold

     Davidson diagonalization with overlap
     ethr =  3.34E-04,  avg # of iterations =  3.9

     negative rho (up, down):  3.652E+00 0.000E+00

     total cpu time spent up to now is      184.1 secs

     total energy              =  -14692.54233646 Ry
     estimated scf accuracy    <       6.30408371 Ry

     iteration #  2     ecut=    40.00 Ry     beta= 0.70
     Davidson diagonalization with overlap
     ethr =  3.98E-04,  avg # of iterations =  1.1

     negative rho (up, down):  3.857E+00 0.000E+00

     total cpu time spent up to now is      241.4 secs

     total energy              =  -14692.82449885 Ry
     estimated scf accuracy    <       2.81482312 Ry

     iteration #  3     ecut=    40.00 Ry     beta= 0.70
     Davidson diagonalization with overlap
     ethr =  1.78E-04,  avg # of iterations =  2.8

     negative rho (up, down):  4.054E+00 0.000E+00

     total cpu time spent up to now is      307.6 secs

     total energy              =  -14692.80768774 Ry
     estimated scf accuracy    <       1.64698371 Ry

     iteration #  4     ecut=    40.00 Ry     beta= 0.70
     Davidson diagonalization with overlap
     c_bands:  3 eigenvalues not converged
     c_bands:  1 eigenvalues not converged
     ethr =  1.04E-04,  avg # of iterations = 12.1

     negative rho (up, down):  4.049E+00 0.000E+00

     total cpu time spent up to now is      426.0 secs

     total energy              =  -14692.78138586 Ry
     estimated scf accuracy    <       0.80834438 Ry

     iteration #  5     ecut=    40.00 Ry     beta= 0.70
     Davidson diagonalization with overlap
     c_bands:  1 eigenvalues not converged
     ethr =  5.10E-05,  avg # of iterations = 12.1

     negative rho (up, down):  3.952E+00 0.000E+00

     total cpu time spent up to now is      514.1 secs

     total energy              =  -14692.76995085 Ry
     estimated scf accuracy    <       0.49517150 Ry

     iteration #  6     ecut=    40.00 Ry     beta= 0.70
     Davidson diagonalization with overlap
     ethr =  3.13E-05,  avg # of iterations = 11.2

     negative rho (up, down):  3.958E+00 0.000E+00

     total cpu time spent up to now is      600.9 secs

     total energy              =  -14692.75516215 Ry
     estimated scf accuracy    <       0.46908788 Ry

     iteration #  7     ecut=    40.00 Ry     beta= 0.70
     Davidson diagonalization with overlap
     ethr =  2.96E-05,  avg # of iterations =  6.1

     negative rho (up, down):  3.979E+00 0.000E+00

     total cpu time spent up to now is      678.5 secs

     total energy              =  -14692.73480513 Ry
     estimated scf accuracy    <       0.47808167 Ry

     iteration #  8     ecut=    40.00 Ry     beta= 0.70
     Davidson diagonalization with overlap
     ethr =  2.96E-05,  avg # of iterations =  4.2

     negative rho (up, down):  4.034E+00 0.000E+00

     total cpu time spent up to now is      748.3 secs

     total energy              =  -14692.71151912 Ry
     estimated scf accuracy    <       0.27048294 Ry

     iteration #  9     ecut=    40.00 Ry     beta= 0.70
     Davidson diagonalization with overlap
     ethr =  1.71E-05,  avg # of iterations = 13.1

     negative rho (up, down):  4.014E+00 0.000E+00

     total cpu time spent up to now is      855.1 secs

     total energy              =  -14692.73940987 Ry
     estimated scf accuracy    <       0.33225913 Ry

     iteration # 10     ecut=    40.00 Ry     beta= 0.70
     Davidson diagonalization with overlap
     ethr =  1.71E-05,  avg # of iterations =  1.1

     negative rho (up, down):  4.089E+00 0.000E+00

     total cpu time spent up to now is      913.3 secs

     total energy              =  -14692.72533058 Ry
     estimated scf accuracy    <       0.19929702 Ry

     iteration # 11     ecut=    40.00 Ry     beta= 0.70
     Davidson diagonalization with overlap
     ethr =  1.26E-05,  avg # of iterations =  2.3

     negative rho (up, down):  4.089E+00 0.000E+00

     total cpu time spent up to now is      979.1 secs

     total energy              =  -14692.73129685 Ry
     estimated scf accuracy    <       0.13405567 Ry

     iteration # 12     ecut=    40.00 Ry     beta= 0.70
     Davidson diagonalization with overlap
     ethr =  8.46E-06,  avg # of iterations =  3.3

     negative rho (up, down):  4.140E+00 0.000E+00

     total cpu time spent up to now is     1047.0 secs

     total energy              =  -14692.70744031 Ry
     estimated scf accuracy    <       0.15602878 Ry

     iteration # 13     ecut=    40.00 Ry     beta= 0.70
     Davidson diagonalization with overlap
     c_bands:  1 eigenvalues not converged
     ethr =  8.46E-06,  avg # of iterations = 13.9

     negative rho (up, down):  4.048E+00 0.000E+00

     total cpu time spent up to now is     1142.6 secs

     total energy              =  -14692.71140502 Ry
     estimated scf accuracy    <       0.01882745 Ry

     iteration # 14     ecut=    40.00 Ry     beta= 0.70
     Davidson diagonalization with overlap
     ethr =  1.19E-06,  avg # of iterations = 11.7

     negative rho (up, down):  4.014E+00 0.000E+00

     total cpu time spent up to now is     1278.7 secs

     total energy              =  -14692.71527041 Ry
     estimated scf accuracy    <       0.05279725 Ry

     iteration # 15     ecut=    40.00 Ry     beta= 0.70
     Davidson diagonalization with overlap
     ethr =  1.19E-06,  avg # of iterations =  2.1

     negative rho (up, down):  3.966E+00 0.000E+00

     total cpu time spent up to now is     1345.8 secs

     total energy              =  -14692.71134040 Ry
     estimated scf accuracy    <       0.02396420 Ry

     iteration # 16     ecut=    40.00 Ry     beta= 0.70
     Davidson diagonalization with overlap
     c_bands:  1 eigenvalues not converged
     ethr =  1.19E-06,  avg # of iterations = 11.6

     negative rho (up, down):  3.939E+00 0.000E+00

     total cpu time spent up to now is     1443.7 secs

     total energy              =  -14692.71319796 Ry
     estimated scf accuracy    <       0.00093822 Ry

     iteration # 17     ecut=    40.00 Ry     beta= 0.70
     Davidson diagonalization with overlap
     ethr =  5.92E-08,  avg # of iterations = 10.2

     negative rho (up, down):  3.922E+00 0.000E+00

     total cpu time spent up to now is     1539.5 secs

     total energy              =  -14692.71324320 Ry
     estimated scf accuracy    <       0.00017549 Ry

     iteration # 18     ecut=    40.00 Ry     beta= 0.70
     Davidson diagonalization with overlap
     ethr =  1.11E-08,  avg # of iterations = 12.7

     negative rho (up, down):  3.918E+00 0.000E+00

     total cpu time spent up to now is     1633.8 secs

     total energy              =  -14692.71334307 Ry
     estimated scf accuracy    <       0.00003267 Ry

     iteration # 19     ecut=    40.00 Ry     beta= 0.70
     Davidson diagonalization with overlap
     ethr =  2.06E-09,  avg # of iterations =  4.9

     negative rho (up, down):  3.918E+00 0.000E+00

     total cpu time spent up to now is     1715.6 secs

     total energy              =  -14692.71338061 Ry
     estimated scf accuracy    <       0.00000403 Ry

     iteration # 20     ecut=    40.00 Ry     beta= 0.70
     Davidson diagonalization with overlap
     ethr =  2.54E-10,  avg # of iterations =  4.0

     negative rho (up, down):  3.918E+00 0.000E+00

     total cpu time spent up to now is     1793.9 secs

     total energy              =  -14692.71339480 Ry
     estimated scf accuracy    <       0.00000132 Ry

     iteration # 21     ecut=    40.00 Ry     beta= 0.70
     Davidson diagonalization with overlap
     ethr =  8.35E-11,  avg # of iterations =  5.7

     negative rho (up, down):  3.918E+00 0.000E+00

     total cpu time spent up to now is     1878.5 secs

     End of self-consistent calculation

          k = 0.0833 0.0962 0.0000 (110166 PWs)   bands (ev):

    -0.8129  -0.4713   0.0255   0.2537   0.5492   0.5641   0.6015   0.6351
     0.8362   0.9223   0.9650   1.0167   1.1251   1.2160   1.2463   1.3387
     1.3568   1.4434   1.5099   1.5527   1.5573   1.5649   1.5684   1.5733
     1.6036   1.6143   1.6195   1.7228   1.7260   1.7270   1.7934   1.8327
     1.8476   1.8506   1.8522   1.8546   1.8571   1.8641   1.8683   1.8949
     1.9218   1.9649   1.9991   2.0303   2.0337   2.0406   2.0560   2.0883
     2.1220   2.1227   2.1254   2.1516   2.1520   2.1578   2.1636   2.1664
     2.1715   2.1764   2.2258   2.2293   2.2382   2.2442   2.2775   2.2807
     2.3046   2.3086   2.3100   2.3148   2.3180   2.3229   2.3337   2.3405
     2.3495   2.3503   2.3811   2.3825   2.3916   2.4115   2.4118   2.4166
     2.4265   2.4302   2.4407   2.4502   2.4523   2.4686   2.4759   2.4837
     2.4887   2.4953   2.5109   2.5151   2.5245   2.5430   2.5463   2.5556
     2.5580   2.5688   2.5742   2.5802   2.5812   2.5933   2.6022   2.6143
     2.6234   2.6416   2.6541   2.6550   2.6672   2.6688   2.6701   2.6805
     2.6846   2.6980   2.7198   2.7199   2.7238   2.7341   2.7476   2.7591
     2.7689   2.7781   2.7907   2.7938   2.8071   2.8124   2.8125   2.8193
     2.8247   2.8509   2.8554   2.8573   2.8600   2.8986   2.9209   2.9295
     2.9326   2.9404   2.9479   2.9504   2.9613   2.9794   2.9842   2.9975
     3.0086   3.0238   3.0439   3.0562   3.0593   3.0691   3.0695   3.0727
     3.0815   3.0835   3.0934   3.1160   3.1171   3.1200   3.1379   3.1428
     3.1480   3.1674   3.1696   3.1761   3.1909   3.1947   3.2022   3.2088
     3.2140   3.2319   3.2336   3.2372   3.2453   3.2614   3.2817   3.2842
     3.2910   3.2926   3.2935   3.3002   3.3218   3.3245   3.3253   3.3263
     3.3319   3.3334   3.3366   3.3439   3.3506   3.3552   3.3607   3.3695
     3.3758   3.3818   3.4061   3.4067   3.4166   3.4219   3.4277   3.4423
     3.4478   3.4484   3.4496   3.4593   3.4632   3.4634   3.4757   3.4759
     3.4789   3.4825   3.4872   3.4974   3.5023   3.5090   3.5120   3.5267
     3.5334   3.5360   3.5480   3.5629   3.5670   3.5689   3.5801   3.5868
     3.5972   3.6018   3.6019   3.6076   3.6089   3.6211   3.6326   3.6469
     3.6480   3.6482   3.6595   3.6791   3.6847   3.6908   3.7092   3.7116
     3.7320   3.7327   3.7495   3.7504   3.7620   3.7657   3.7732   3.7743
     3.7760   3.7789   3.7863   3.7920   3.7941   3.8014   3.8050   3.8139
     3.8189   3.8281   3.8358   3.8434   3.8525   3.8650   3.8697   3.8698
     3.8735   3.8738   3.8766   3.8936   3.8953   3.9003   3.9021   3.9073
     3.9193   3.9206   3.9261   3.9328   3.9342   3.9346   3.9389   3.9495
     3.9550   3.9553   3.9610   3.9636   3.9647   3.9677   3.9802   3.9835
     3.9865   3.9878   3.9917   3.9941   4.0057   4.0118   4.0218   4.0262
     4.0265   4.0425   4.0522   4.0645   4.0682   4.0732   4.0733   4.0801
     4.0868   4.0953   4.0986   4.0992   4.1049   4.1079   4.1101   4.1141
     4.1178   4.1298   4.1337   4.1399   4.1422   4.1569   4.1587   4.1645
     4.1655   4.1657   4.1664   4.1674   4.1744   4.1754   4.1755   4.1786
     4.1832   4.1890   4.1906   4.1907   4.1941   4.2008   4.2039   4.2058
     4.2067   4.2152   4.2185   4.2272   4.2358   4.2378   4.2442   4.2549
     4.2566   4.2612   4.2654   4.2700   4.2779   4.2941   4.2961   4.3003
     4.3058   4.3145   4.3185   4.3219   4.3224   4.3329   4.3384   4.3480
     4.3567   4.3579   4.3595   4.3673   4.3696   4.3704   4.3790   4.3807
     4.3828   4.3838   4.3928   4.3944   4.3996   4.4014   4.4266   4.4297
     4.4314   4.4335   4.4421   4.4513   4.4514   4.4526   4.4661   4.4686
     4.4917   4.4934   4.5084   4.5097   4.5128   4.5189   4.5198   4.5250
     4.5282   4.5336   4.5363   4.5382   4.5484   4.5688   4.5790   4.5973
     4.6062   4.6219   4.6326   4.6326   4.6362   4.6450   4.6592   4.6631
     4.6873   4.6917   4.6926   4.6975   4.6991   4.7085   4.7184   4.7211
     4.7252   4.7374   4.7467   4.7490   4.7515   4.7607   4.7645   4.7728
     4.8137   4.8255   4.8275   4.8289   4.8404   4.8422   4.8508   4.8720
     4.8787   4.8810   4.8821   4.8919   4.8962   4.8991   4.9029   4.9094
     4.9100   4.9107   4.9275   4.9299   4.9353   4.9413   4.9564   4.9597
     4.9620   4.9724   4.9730   4.9751   4.9810   4.9837   4.9914   4.9989
     4.9990   5.0118   5.0192   5.0294   5.0299   5.0307   5.0353   5.0377
     5.0465   5.0565   5.0606   5.0632   5.0696   5.0822   5.0882   5.1087
     5.1116   5.1243   5.1281   5.1354   5.1384   5.1419   5.1514   5.1519
     5.1540   5.1604   5.1817   5.1907   5.1930   5.2011   5.2013   5.2159
     5.2161   5.2236   5.2245   5.2293   5.2316   5.2317   5.2363   5.2382
     5.2386   5.2497   5.2606   5.2615   5.2622   5.2650   5.2662   5.2689
     5.2703   5.2755   5.2829   5.2855   5.2873   5.2962   5.2994   5.3189
     5.3199   5.3220   5.3270   5.3322   5.3344   5.3403   5.3473   5.3511
     5.3522   5.3538   5.3544   5.3752   5.3790   5.3898   5.4065   5.4065
     5.4141   5.4168   5.4191   5.4199   5.4241   5.4281   5.4316   5.4508
     5.4526   5.4535   5.4608   5.4785   5.4793   5.4888   5.4896   5.4961
     5.5109   5.5163   5.5165   5.5351   5.5400   5.5429   5.5455   5.5473
     5.5511   5.5549   5.5558   5.5725   5.5768   5.5768   5.6004   5.6062
     5.6110   5.6226   5.6275   5.6413   5.6479   5.6571   5.6594   5.6607
     5.6751   5.6763   5.6786   5.6971   5.6972   5.6999   5.6999   5.7093
     5.7106   5.7249   5.7289   5.7303   5.7474   5.7482   5.7567   5.7609
     5.7622   5.7907   5.8051   5.8079   5.8117   5.8215   5.8243   5.8307
     5.8487   5.8548   5.8600   5.8652   5.8654   5.8669   5.8825   5.8891
     5.8930   5.8965   5.8974   5.9060   5.9167   5.9254   5.9398   5.9407
     5.9429   5.9576   5.9593   5.9599   5.9770   5.9780   5.9808   5.9826
     5.9954   5.9956   5.9964   5.9989   6.0112   6.0131   6.0283   6.0517
     6.0530   6.0660   6.0669   6.0706   6.0726   6.0742   6.0860   6.0947
     6.0973   6.0978   6.1010   6.1086   6.1171   6.1181   6.1223   6.1293
     6.1338   6.1427   6.1429   6.1520   6.1547   6.1623   6.1658   6.1677
     6.1699   6.1752   6.1784   6.1795   6.1961   6.1961   6.2014   6.2069
     6.2138   6.2143   6.2199   6.2209   6.2213   6.2315   6.2339   6.2346
     6.2350   6.2390   6.2530   6.2597   6.2598   6.2671   6.2743   6.2767
     6.2827   6.2839   6.2939   6.2945   6.3037   6.3139   6.3192   6.3229
     6.3279   6.3286   6.3362   6.3459   6.3460   6.3460   6.3474   6.3477
     6.3608   6.3716   6.3745   6.3752   6.3762   6.3777   6.3788   6.3796
     6.3880   6.3904   6.3922   6.3926   6.3957   6.3963   6.3980   6.3989
     6.4044   6.4056   6.4092   6.4286   6.4318   6.4325   6.4346   6.4347
     6.4386   6.4516   6.4563   6.4633   6.4651   6.4677   6.4700   6.4865
     6.4868   6.5117   6.5126   6.5194   6.5290   6.5345   6.5460   6.5486
     6.5608   6.5646   6.5714   6.5753   6.5809   6.5846   6.5875   6.5881
     6.5919   6.5939   6.5959   6.5992   6.6011   6.6049   6.6086   6.6333
     6.6383   6.6526   6.6689   6.6704   6.6968   6.6975   6.7171   6.7193
     6.7250   6.7567   6.7607   6.7855   6.7993   6.8275   6.8338   6.8531
     6.8683   6.8764   6.9126   6.9130   6.9558   6.9979   7.0630   7.0798
     7.1345   7.2656   7.3380   7.3797   7.5266   7.6221   7.6698   7.6911
     7.7395   7.7969   7.7988   7.8521   7.8920   8.0376   8.0476   8.0545
     8.0607   8.0795   8.1462   8.2409   8.2770   8.3596   8.4061   8.4152
     8.4534   8.4654   8.5507   8.5855   8.7137   8.7454   8.7752   8.7832
     8.7920   8.9185   8.9272   8.9280   8.9468   8.9508   8.9783   9.0403
     9.0558   9.1042   9.1965   9.2564   9.2727   9.2777   9.2891   9.2967
     9.3531   9.4610   9.5702   9.5885   9.6441   9.6611   9.6860   9.7175
     9.7599   9.8306   9.8605   9.8718   9.8789   9.9042   9.9109   9.9361
     9.9776   9.9943   9.9979  10.0744  10.0901  10.2000  10.2071  10.3143
    10.3642  10.4599  10.5294  10.6511  10.6742  10.7058  10.7284  10.7897
    10.8569  10.8656  10.8917  10.9388  10.9820  10.9854  11.0332  11.0637
    11.0766  11.1308  11.1450  11.2293  11.2359  11.2425  11.2590  11.2644
    11.2823  11.3281  11.3376  11.3824  11.4668  11.5722  11.6063  11.7216
    11.7284  11.7566  11.8212  11.8825  11.8985  11.9043  11.9531  12.0479
    12.0587  12.0968  12.2161  12.2255  12.3380  12.3720  12.3800  12.4489
    12.4558  12.5405  12.5510  12.6018  12.6091  12.6161  12.6197  12.6451
    12.7298  12.7434  12.7884  12.8467  12.8748  12.8884  13.0226  13.0520
    13.0809  13.1579  13.2151  13.2443  13.2843  13.3196  13.3232  13.3387
    13.3836  13.4640  13.4669  13.4683  13.4915  13.5777  13.6762  13.6819
    13.7254  13.8097  13.8226  13.8358  13.8430  13.8831  13.8842  13.8893
    13.9142  13.9526  13.9602  13.9946  13.9952  14.0008  14.0079  14.0904
    14.1445  14.1705  14.1717  14.2789  14.2824  14.3392  14.3696  14.4033
    14.4103  14.4229  14.5054  14.5482  14.5550  14.7374

          k = 0.0833 0.2887 0.0000 (110134 PWs)   bands (ev):

    -0.7121  -0.3721   0.1226   0.1367   0.3332   0.4500   0.6379   0.6973
     0.6988   0.9045   0.9788   1.0132   1.0803   1.2202   1.2411   1.2640
     1.3072   1.3800   1.4288   1.4719   1.5338   1.5450   1.6002   1.6053
     1.6100   1.6497   1.6505   1.6609   1.6966   1.7607   1.7919   1.8465
     1.8612   1.8865   1.8972   1.9035   1.9192   1.9250   1.9444   1.9944
     2.0365   2.0411   2.0573   2.0650   2.0786   2.0842   2.0853   2.0992
     2.1139   2.1520   2.1679   2.1709   2.1737   2.1754   2.1759   2.1996
     2.2057   2.2133   2.2504   2.2537   2.2539   2.2572   2.2715   2.2722
     2.2769   2.2863   2.2877   2.2884   2.2974   2.3061   2.3123   2.3236
     2.3272   2.3384   2.3591   2.3593   2.3611   2.3625   2.3683   2.4027
     2.4144   2.4228   2.4253   2.4335   2.4503   2.4613   2.4685   2.4714
     2.4807   2.4860   2.4946   2.4996   2.4997   2.5020   2.5088   2.5180
     2.5195   2.5439   2.5455   2.5547   2.5682   2.5732   2.5878   2.5949
     2.5973   2.6220   2.6429   2.6489   2.6593   2.6746   2.6771   2.6810
     2.6926   2.6944   2.6954   2.7018   2.7021   2.7049   2.7113   2.7227
     2.7231   2.7433   2.7599   2.7747   2.7762   2.7801   2.7973   2.8035
     2.8074   2.8114   2.8195   2.8325   2.8377   2.8537   2.8595   2.8696
     2.8704   2.8873   2.8925   2.9247   2.9299   2.9322   2.9383   2.9462
     2.9789   2.9961   3.0051   3.0105   3.0142   3.0356   3.0410   3.0691
     3.0796   3.0823   3.0827   3.0844   3.0889   3.1043   3.1258   3.1303
     3.1369   3.1416   3.1603   3.1627   3.1782   3.1825   3.2006   3.2245
     3.2320   3.2376   3.2393   3.2421   3.2487   3.2676   3.2682   3.2740
     3.2741   3.2746   3.2915   3.3072   3.3115   3.3143   3.3282   3.3343
     3.3391   3.3401   3.3499   3.3540   3.3602   3.3673   3.3744   3.3839
     3.3845   3.4096   3.4119   3.4218   3.4237   3.4348   3.4395   3.4519
     3.4607   3.4617   3.4699   3.4764   3.4792   3.4837   3.4959   3.5018
     3.5087   3.5156   3.5242   3.5315   3.5335   3.5473   3.5494   3.5511
     3.5556   3.5560   3.5684   3.5843   3.5877   3.5886   3.6151   3.6159
     3.6199   3.6221   3.6230   3.6272   3.6412   3.6486   3.6611   3.6750
     3.6779   3.6854   3.6859   3.6914   3.6998   3.7020   3.7078   3.7081
     3.7385   3.7496   3.7511   3.7626   3.7649   3.7669   3.7707   3.7707
     3.7794   3.7863   3.7915   3.8157   3.8159   3.8362   3.8387   3.8465
     3.8506   3.8535   3.8623   3.8648   3.8701   3.8763   3.8922   3.8973
     3.9038   3.9096   3.9112   3.9126   3.9149   3.9279   3.9386   3.9443
     3.9444   3.9451   3.9453   3.9480   3.9551   3.9590   3.9654   3.9764
     3.9776   3.9821   3.9937   3.9947   3.9988   4.0006   4.0082   4.0219
     4.0219   4.0248   4.0252   4.0266   4.0548   4.0561   4.0629   4.0670
     4.0722   4.0728   4.0736   4.0746   4.0819   4.0849   4.1083   4.1114
     4.1157   4.1158   4.1222   4.1351   4.1397   4.1401   4.1455   4.1462
     4.1463   4.1478   4.1517   4.1608   4.1687   4.1738   4.1761   4.1779
     4.1812   4.1853   4.1873   4.1914   4.1945   4.1974   4.1981   4.2031
     4.2063   4.2131   4.2164   4.2187   4.2220   4.2229   4.2237   4.2261
     4.2261   4.2289   4.2318   4.2327   4.2458   4.2464   4.2669   4.2687
     4.2716   4.2764   4.2776   4.2826   4.2880   4.2984   4.2986   4.3034
     4.3078   4.3105   4.3178   4.3229   4.3271   4.3304   4.3446   4.3490
     4.3507   4.3604   4.3689   4.3700   4.3783   4.3804   4.3805   4.3887
     4.3986   4.4044   4.4190   4.4232   4.4239   4.4320   4.4332   4.4538
     4.4576   4.4610   4.4624   4.4642   4.4659   4.4719   4.4882   4.4932
     4.4934   4.4946   4.5053   4.5212   4.5234   4.5335   4.5395   4.5488
     4.5569   4.5756   4.5778   4.5802   4.5838   4.5905   4.5985   4.5986
     4.6014   4.6126   4.6137   4.6308   4.6408   4.6535   4.6546   4.6600
     4.6646   4.6705   4.6770   4.6839   4.6893   4.6984   4.7063   4.7064
     4.7097   4.7170   4.7194   4.7418   4.7477   4.7589   4.7697   4.7758
     4.7951   4.8046   4.8209   4.8263   4.8297   4.8332   4.8451   4.8508
     4.8595   4.8597   4.8663   4.8665   4.8749   4.8758   4.8960   4.8995
     4.9086   4.9185   4.9256   4.9265   4.9276   4.9464   4.9468   4.9486
     4.9633   4.9656   4.9663   4.9751   4.9818   4.9849   4.9865   4.9893
     4.9925   4.9994   5.0061   5.0080   5.0121   5.0273   5.0292   5.0355
     5.0419   5.0479   5.0520   5.0659   5.0720   5.0840   5.0935   5.0984
     5.0993   5.1151   5.1158   5.1168   5.1296   5.1303   5.1355   5.1464
     5.1482   5.1489   5.1583   5.1718   5.1826   5.1943   5.1953   5.2016
     5.2024   5.2107   5.2200   5.2237   5.2265   5.2341   5.2385   5.2418
     5.2458   5.2517   5.2524   5.2545   5.2574   5.2610   5.2795   5.2835
     5.2913   5.3125   5.3205   5.3213   5.3244   5.3284   5.3304   5.3401
     5.3461   5.3468   5.3470   5.3554   5.3597   5.3615   5.3710   5.3783
     5.3871   5.3929   5.3969   5.4084   5.4100   5.4124   5.4193   5.4259
     5.4270   5.4288   5.4289   5.4372   5.4376   5.4491   5.4492   5.4541
     5.4707   5.4772   5.4806   5.4823   5.4942   5.4959   5.4978   5.5079
     5.5094   5.5098   5.5211   5.5266   5.5357   5.5379   5.5459   5.5501
     5.5523   5.5536   5.5747   5.5793   5.5815   5.5848   5.5887   5.5930
     5.5984   5.6044   5.6072   5.6083   5.6129   5.6219   5.6320   5.6326
     5.6369   5.6381   5.6433   5.6511   5.6652   5.6678   5.6711   5.6744
     5.6913   5.6938   5.6944   5.7056   5.7143   5.7216   5.7284   5.7295
     5.7357   5.7452   5.7457   5.7676   5.7683   5.7723   5.7738   5.7740
     5.7857   5.7900   5.7915   5.7970   5.7996   5.8192   5.8218   5.8345
     5.8359   5.8588   5.8641   5.8690   5.8719   5.8780   5.8976   5.9035
     5.9071   5.9140   5.9141   5.9257   5.9281   5.9433   5.9438   5.9466
     5.9478   5.9481   5.9558   5.9722   5.9750   5.9824   5.9824   5.9825
     5.9842   6.0105   6.0166   6.0199   6.0236   6.0247   6.0278   6.0298
     6.0328   6.0378   6.0596   6.0715   6.0922   6.1041   6.1084   6.1093
     6.1133   6.1183   6.1241   6.1253   6.1271   6.1348   6.1455   6.1466
     6.1505   6.1564   6.1593   6.1600   6.1624   6.1742   6.1767   6.1903
     6.1937   6.2051   6.2051   6.2052   6.2082   6.2112   6.2146   6.2163
     6.2238   6.2278   6.2345   6.2362   6.2503   6.2539   6.2564   6.2600
     6.2716   6.2750   6.2756   6.2757   6.2817   6.2832   6.2865   6.2938
     6.2970   6.2972   6.3005   6.3010   6.3144   6.3144   6.3195   6.3211
     6.3224   6.3272   6.3342   6.3426   6.3544   6.3572   6.3622   6.3648
     6.3663   6.3761   6.3789   6.3839   6.3891   6.3894   6.3907   6.3930
     6.3947   6.4002   6.4003   6.4265   6.4355   6.4471   6.4493   6.4537
     6.4540   6.4583   6.4601   6.4615   6.4641   6.4654   6.4809   6.4873
     6.4892   6.4933   6.4984   6.5050   6.5169   6.5402   6.5418   6.5432
     6.5433   6.5493   6.5641   6.5646   6.5678   6.5870   6.5886   6.5973
     6.5995   6.5995   6.6024   6.6024   6.6070   6.6192   6.6267   6.6272
     6.6299   6.6426   6.7176   6.7186   6.7254   6.7426   6.7447   6.7964
     6.8301   6.8480   6.8542   6.8748   6.8775   6.9108   6.9110   6.9661
     6.9992   7.0641   7.0847   7.1194   7.1489   7.2420   7.3239   7.3245
     7.3415   7.4301   7.4629   7.4847   7.5135   7.5677   7.5805   7.6162
     7.6595   7.7311   7.7838   7.7876   7.7931   7.8221   7.9866   8.0153
     8.0369   8.0831   8.1140   8.2065   8.2147   8.2357   8.2561   8.2942
     8.2999   8.4393   8.4529   8.4792   8.5082   8.5499   8.6561   8.6805
     8.7582   8.7940   8.7954   8.8001   8.9361   8.9603   9.0338   9.0368
     9.0778   9.0922   9.1198   9.1200   9.1523   9.1736   9.2183   9.2661
     9.2793   9.4276   9.4350   9.4445   9.4481   9.4830   9.6589   9.7075
     9.7081   9.7105   9.7678   9.7773   9.8411   9.9048   9.9556   9.9826
    10.0122  10.0862  10.1378  10.1753  10.2303  10.3585  10.4072  10.4494
    10.4915  10.5418  10.6180  10.6335  10.6516  10.6522  10.6635  10.7169
    10.9127  10.9775  11.0145  11.0274  11.1102  11.1341  11.2091  11.2247
    11.2605  11.3006  11.3089  11.3203  11.3340  11.3796  11.4415  11.4990
    11.5258  11.5990  11.6091  11.6359  11.6929  11.7603  11.7671  11.7723
    11.8430  11.8434  11.8740  12.0152  12.0287  12.0816  12.0884  12.0925
    12.0991  12.1876  12.2303  12.2589  12.2954  12.3867  12.4259  12.4476
    12.4923  12.5342  12.5529  12.5787  12.5809  12.6147  12.6668  12.7281
    12.7649  12.7787  12.8312  12.9112  12.9157  12.9242  12.9506  13.0058
    13.0218  13.1168  13.1305  13.1929  13.2288  13.2741  13.2776  13.3039
    13.3261  13.4002  13.4212  13.4308  13.4391  13.4526  13.5575  13.6135
    13.6182  13.6329  13.6487  13.6769  13.7156  13.7427  13.7512  13.7995
    13.8658  13.8985  14.0071  14.0116  14.0387  14.0510  14.1032  14.1162
    14.1445  14.1890  14.2001  14.2198  14.2505  14.2537  14.3440  14.3935
    14.4558  14.4676  14.5069  14.5084  14.6119  14.6298

          k = 0.0833 0.4811 0.0000 (110137 PWs)   bands (ev):

    -0.5139  -0.2262  -0.1778   0.1020   0.3117   0.4900   0.5802   0.7195
     0.7833   0.8245   0.8821   0.9952   1.0079   1.0910   1.1388   1.2051
     1.2569   1.3854   1.4019   1.4637   1.5058   1.5834   1.5912   1.6432
     1.6938   1.7091   1.7517   1.7547   1.8040   1.8168   1.8291   1.8300
     1.8556   1.8813   1.9103   1.9393   1.9455   1.9476   1.9731   1.9998
     2.0095   2.0104   2.0133   2.0285   2.0427   2.0658   2.0742   2.0845
     2.1272   2.1292   2.1441   2.1467   2.1617   2.1688   2.1962   2.2125
     2.2303   2.2340   2.2343   2.2418   2.2477   2.2734   2.2886   2.2906
     2.3019   2.3027   2.3080   2.3254   2.3295   2.3383   2.3439   2.3450
     2.3580   2.3701   2.3765   2.3808   2.3833   2.3991   2.4064   2.4081
     2.4123   2.4231   2.4263   2.4282   2.4365   2.4396   2.4494   2.4515
     2.4563   2.4603   2.4744   2.4766   2.4838   2.4857   2.5136   2.5357
     2.5376   2.5380   2.5534   2.5647   2.5681   2.5757   2.5801   2.5881
     2.5905   2.5944   2.5982   2.5986   2.5986   2.6140   2.6170   2.6208
     2.6352   2.6591   2.6614   2.6637   2.6731   2.6933   2.6942   2.7013
     2.7149   2.7166   2.7267   2.7430   2.7451   2.7601   2.7718   2.7725
     2.7757   2.7810   2.7855   2.8061   2.8066   2.8068   2.8147   2.8344
     2.8371   2.8490   2.8555   2.8595   2.8609   2.8754   2.8759   2.9118
     2.9197   2.9229   2.9373   2.9565   2.9568   3.0112   3.0220   3.0566
     3.0676   3.0804   3.0828   3.0851   3.1109   3.1221   3.1308   3.1331
     3.1401   3.1430   3.1630   3.1802   3.1811   3.1965   3.1989   3.1993
     3.2089   3.2124   3.2233   3.2249   3.2283   3.2629   3.2674   3.2743
     3.2793   3.3127   3.3166   3.3245   3.3277   3.3292   3.3475   3.3540
     3.3607   3.3732   3.3733   3.3759   3.3779   3.3792   3.4049   3.4096
     3.4138   3.4214   3.4347   3.4388   3.4390   3.4643   3.4732   3.4748
     3.4860   3.4962   3.5063   3.5150   3.5151   3.5187   3.5320   3.5382
     3.5390   3.5437   3.5538   3.5580   3.5709   3.5763   3.5765   3.5856
     3.5908   3.5920   3.5935   3.5983   3.6017   3.6211   3.6244   3.6247
     3.6252   3.6260   3.6263   3.6298   3.6448   3.6620   3.6924   3.6934
     3.6962   3.6978   3.7044   3.7151   3.7190   3.7201   3.7210   3.7305
     3.7344   3.7349   3.7437   3.7459   3.7593   3.7595   3.7714   3.7770
     3.7853   3.7877   3.7904   3.8107   3.8252   3.8266   3.8467   3.8493
     3.8555   3.8557   3.8571   3.8678   3.8682   3.8751   3.9044   3.9165
     3.9197   3.9226   3.9234   3.9245   3.9308   3.9409   3.9488   3.9530
     3.9710   3.9758   3.9784   3.9800   3.9924   4.0057   4.0126   4.0154
     4.0163   4.0193   4.0283   4.0391   4.0392   4.0418   4.0534   4.0579
     4.0686   4.0696   4.0710   4.0764   4.0789   4.0857   4.0913   4.0969
     4.0979   4.1022   4.1097   4.1141   4.1197   4.1203   4.1296   4.1318
     4.1351   4.1394   4.1412   4.1425   4.1499   4.1548   4.1624   4.1625
     4.1639   4.1649   4.1694   4.1711   4.1783   4.1812   4.1832   4.1871
     4.1936   4.1971   4.1988   4.1995   4.1998   4.2004   4.2021   4.2051
     4.2101   4.2141   4.2183   4.2187   4.2309   4.2317   4.2318   4.2368
     4.2373   4.2388   4.2502   4.2543   4.2559   4.2579   4.2678   4.2740
     4.2746   4.2784   4.2827   4.2887   4.2967   4.3005   4.3061   4.3147
     4.3153   4.3224   4.3280   4.3395   4.3446   4.3505   4.3537   4.3560
     4.3626   4.3688   4.3691   4.3709   4.3719   4.3816   4.3894   4.3938
     4.3996   4.4066   4.4255   4.4267   4.4295   4.4344   4.4625   4.4630
     4.4667   4.4712   4.4782   4.4842   4.4854   4.4906   4.4911   4.4956
     4.4991   4.5050   4.5224   4.5343   4.5355   4.5361   4.5407   4.5500
     4.5560   4.5660   4.5744   4.5770   4.5787   4.5864   4.5908   4.6078
     4.6397   4.6475   4.6522   4.6621   4.6668   4.6804   4.6844   4.6859
     4.6918   4.6992   4.7037   4.7145   4.7189   4.7256   4.7307   4.7446
     4.7456   4.7650   4.7789   4.7853   4.7974   4.8014   4.8059   4.8103
     4.8113   4.8151   4.8177   4.8235   4.8241   4.8261   4.8281   4.8301
     4.8497   4.8586   4.8595   4.8718   4.8723   4.8738   4.8799   4.8859
     4.8884   4.8946   4.9011   4.9066   4.9185   4.9252   4.9464   4.9534
     4.9585   4.9648   4.9712   4.9812   4.9819   4.9913   4.9931   5.0022
     5.0065   5.0147   5.0166   5.0228   5.0248   5.0341   5.0342   5.0373
     5.0424   5.0587   5.0607   5.0733   5.0784   5.0845   5.0865   5.0948
     5.1095   5.1212   5.1224   5.1293   5.1336   5.1352   5.1487   5.1513
     5.1553   5.1611   5.1618   5.1733   5.1804   5.1854   5.1902   5.1909
     5.1999   5.2044   5.2071   5.2221   5.2250   5.2285   5.2311   5.2321
     5.2390   5.2392   5.2410   5.2425   5.2463   5.2504   5.2586   5.2591
     5.2645   5.2741   5.2769   5.2834   5.2858   5.2887   5.2972   5.3120
     5.3163   5.3266   5.3274   5.3312   5.3372   5.3444   5.3446   5.3557
     5.3643   5.3672   5.3731   5.3762   5.3762   5.3767   5.3811   5.3877
     5.3951   5.3952   5.3989   5.4029   5.4035   5.4092   5.4131   5.4318
     5.4342   5.4461   5.4563   5.4577   5.4593   5.4729   5.4743   5.4746
     5.4869   5.4950   5.5089   5.5185   5.5322   5.5334   5.5360   5.5372
     5.5425   5.5470   5.5555   5.5643   5.5679   5.5772   5.5778   5.5822
     5.5938   5.5991   5.6046   5.6076   5.6202   5.6219   5.6321   5.6406
     5.6453   5.6454   5.6472   5.6584   5.6680   5.6747   5.6788   5.6858
     5.6967   5.7080   5.7123   5.7299   5.7308   5.7312   5.7334   5.7430
     5.7484   5.7494   5.7628   5.7668   5.7693   5.7698   5.7724   5.7766
     5.7779   5.7981   5.8002   5.8072   5.8106   5.8289   5.8329   5.8341
     5.8374   5.8439   5.8538   5.8542   5.8571   5.8574   5.8583   5.8600
     5.8765   5.9006   5.9022   5.9035   5.9107   5.9108   5.9466   5.9471
     5.9490   5.9495   5.9581   5.9588   5.9634   5.9687   5.9689   5.9775
     5.9909   6.0095   6.0131   6.0141   6.0278   6.0361   6.0440   6.0478
     6.0529   6.0537   6.0564   6.0573   6.0719   6.0731   6.0735   6.0736
     6.0766   6.0774   6.0890   6.0907   6.0911   6.1010   6.1074   6.1078
     6.1085   6.1231   6.1245   6.1301   6.1394   6.1403   6.1450   6.1504
     6.1530   6.1577   6.1654   6.1686   6.1763   6.1820   6.1842   6.1860
     6.1929   6.1997   6.2058   6.2094   6.2138   6.2189   6.2259   6.2260
     6.2334   6.2355   6.2468   6.2485   6.2578   6.2636   6.2648   6.2657
     6.2673   6.2731   6.2791   6.2827   6.2913   6.2931   6.2976   6.3072
     6.3172   6.3310   6.3338   6.3363   6.3375   6.3454   6.3497   6.3589
     6.3622   6.3648   6.3650   6.3701   6.3763   6.3773   6.3778   6.3833
     6.3850   6.3865   6.3943   6.4091   6.4164   6.4186   6.4244   6.4252
     6.4425   6.4454   6.4485   6.4497   6.4527   6.4742   6.4780   6.4780
     6.4784   6.5016   6.5161   6.5174   6.5364   6.5466   6.5467   6.5473
     6.5481   6.5484   6.5508   6.5652   6.5850   6.5858   6.5899   6.5923
     6.5992   6.5997   6.6021   6.6043   6.6059   6.6347   6.6371   6.6373
     6.6627   6.6818   6.6917   6.6971   6.7170   6.7250   6.7285   6.7398
     6.7464   6.8159   6.8259   6.8953   6.8965   6.8974   6.9057   6.9064
     6.9117   6.9340   7.0626   7.0667   7.1469   7.2576   7.4071   7.4967
     7.5254   7.5292   7.5832   7.6143   7.6393   7.6862   7.7172   7.8002
     7.8061   7.8154   7.8493   7.8510   7.8662   7.8703   8.0011   8.0289
     8.0663   8.1133   8.1925   8.1973   8.2136   8.2647   8.2980   8.3294
     8.3494   8.3614   8.4064   8.4200   8.4214   8.4240   8.5150   8.5164
     8.5960   8.6486   8.6487   8.6701   8.6836   8.7882   8.8061   8.8539
     8.9665   9.0091   9.0220   9.0637   9.1285   9.1464   9.2262   9.2312
     9.2505   9.2985   9.3119   9.3146   9.3897   9.4963   9.5762   9.6973
     9.7012   9.7303   9.7558   9.7803   9.7877   9.8241   9.8688  10.0040
    10.0744  10.2244  10.2500  10.2529  10.2643  10.2982  10.3937  10.4661
    10.5446  10.5521  10.5645  10.5919  10.6435  10.6809  10.7564  10.7871
    10.9349  11.0498  11.0861  11.1349  11.1945  11.2182  11.2268  11.2741
    11.2965  11.3419  11.3897  11.4437  11.4509  11.4824  11.5487  11.6596
    11.6621  11.6655  11.7791  11.8062  11.8309  11.8564  11.9312  11.9858
    12.0007  12.0116  12.0633  12.1032  12.1128  12.1262  12.2555  12.2786
    12.3036  12.3150  12.3200  12.3471  12.3561  12.4092  12.5246  12.5924
    12.6220  12.6534  12.7047  12.7414  12.7650  12.7790  12.8208  12.8497
    12.8733  12.8934  12.9050  12.9361  13.0225  13.0714  13.0937  13.0962
    13.1006  13.1679  13.1796  13.2033  13.2276  13.2492  13.2595  13.2840
    13.2950  13.3790  13.4405  13.4464  13.4619  13.4632  13.4717  13.5041
    13.5235  13.5272  13.6556  13.6623  13.6884  13.7600  13.7659  13.8170
    13.8264  13.8961  13.9333  13.9337  13.9393  13.9577  14.0270  14.0490
    14.0698  14.1005  14.1118  14.1275  14.1623  14.2009  14.2031  14.2310
    14.2433  14.2709  14.3230  14.3740  14.4014  14.4272

          k = 0.2500 0.0962 0.0000 (110146 PWs)   bands (ev):

    -0.7372  -0.3967  -0.0847   0.0988   0.2399   0.6178   0.6743   0.7139
     0.9016   1.0348   1.0431   1.1486   1.1979   1.2720   1.2809   1.2944
     1.3081   1.3873   1.5129   1.5596   1.5861   1.6012   1.6172   1.6297
     1.6348   1.6503   1.6524   1.6768   1.7201   1.7421   1.7828   1.7842
     1.7874   1.8188   1.8489   1.8750   1.8936   1.8997   1.9018   1.9258
     1.9817   1.9844   2.0165   2.0456   2.0479   2.0639   2.0744   2.0792
     2.0924   2.1064   2.1175   2.1250   2.1391   2.1539   2.1585   2.1597
     2.1606   2.1633   2.1651   2.1812   2.2023   2.2209   2.2211   2.2301
     2.2415   2.2444   2.2484   2.2684   2.2786   2.2810   2.2835   2.2968
     2.3110   2.3424   2.3425   2.3517   2.3562   2.3864   2.4043   2.4081
     2.4142   2.4362   2.4403   2.4492   2.4520   2.4581   2.4700   2.4725
     2.4803   2.4967   2.5077   2.5225   2.5233   2.5388   2.5418   2.5508
     2.5817   2.5874   2.5907   2.5948   2.5971   2.5987   2.6202   2.6333
     2.6393   2.6409   2.6632   2.6679   2.6764   2.6786   2.6937   2.6955
     2.7210   2.7223   2.7239   2.7239   2.7323   2.7396   2.7517   2.7626
     2.7860   2.7889   2.7897   2.7937   2.8031   2.8260   2.8323   2.8637
     2.8652   2.8652   2.8673   2.8858   2.8997   2.9061   2.9155   2.9229
     2.9236   2.9331   2.9372   2.9483   2.9516   2.9523   2.9914   2.9917
     2.9946   3.0087   3.0233   3.0251   3.0343   3.0441   3.0606   3.0732
     3.0745   3.0848   3.1099   3.1113   3.1140   3.1269   3.1436   3.1539
     3.1627   3.1681   3.1692   3.1772   3.1787   3.1791   3.1888   3.1942
     3.1960   3.2221   3.2295   3.2307   3.2328   3.2436   3.2544   3.2577
     3.2595   3.2837   3.2873   3.2958   3.2960   3.2990   3.2994   3.3046
     3.3240   3.3244   3.3289   3.3291   3.3324   3.3383   3.3481   3.3597
     3.3629   3.3721   3.3796   3.3833   3.3884   3.3902   3.3983   3.4114
     3.4133   3.4145   3.4376   3.4377   3.4516   3.4520   3.4593   3.4694
     3.4703   3.4711   3.4805   3.4855   3.4892   3.5049   3.5224   3.5313
     3.5334   3.5487   3.5526   3.5593   3.5648   3.5678   3.5777   3.5963
     3.5998   3.6022   3.6090   3.6110   3.6244   3.6291   3.6442   3.6513
     3.6613   3.6688   3.6738   3.6839   3.6932   3.6970   3.7052   3.7102
     3.7161   3.7176   3.7215   3.7228   3.7228   3.7296   3.7350   3.7745
     3.7751   3.7777   3.8087   3.8099   3.8156   3.8178   3.8315   3.8375
     3.8415   3.8416   3.8470   3.8589   3.8599   3.8619   3.8621   3.8636
     3.8754   3.8801   3.8812   3.8836   3.8854   3.8954   3.8983   3.9089
     3.9143   3.9332   3.9338   3.9346   3.9347   3.9350   3.9533   3.9544
     3.9558   3.9575   3.9580   3.9662   3.9724   3.9742   3.9758   3.9766
     3.9818   3.9838   3.9897   3.9929   4.0021   4.0116   4.0188   4.0325
     4.0333   4.0339   4.0458   4.0521   4.0543   4.0562   4.0582   4.0634
     4.0728   4.0746   4.0807   4.0814   4.0827   4.0921   4.0961   4.0973
     4.0989   4.1018   4.1063   4.1097   4.1105   4.1139   4.1258   4.1322
     4.1379   4.1486   4.1557   4.1647   4.1683   4.1752   4.1781   4.1814
     4.1845   4.1860   4.1891   4.1915   4.1937   4.1977   4.2004   4.2021
     4.2037   4.2078   4.2121   4.2202   4.2222   4.2288   4.2367   4.2463
     4.2519   4.2585   4.2721   4.2909   4.2926   4.2963   4.2967   4.2983
     4.3041   4.3122   4.3212   4.3305   4.3329   4.3409   4.3421   4.3455
     4.3578   4.3596   4.3652   4.3674   4.3687   4.3788   4.3838   4.3870
     4.3941   4.4063   4.4071   4.4134   4.4216   4.4266   4.4275   4.4377
     4.4399   4.4439   4.4497   4.4510   4.4529   4.4619   4.4825   4.4900
     4.4979   4.4993   4.5011   4.5131   4.5179   4.5230   4.5340   4.5426
     4.5430   4.5524   4.5553   4.5609   4.5695   4.5976   4.6016   4.6044
     4.6208   4.6296   4.6363   4.6468   4.6477   4.6508   4.6524   4.6567
     4.6739   4.6754   4.6794   4.6796   4.6877   4.7123   4.7162   4.7168
     4.7304   4.7463   4.7569   4.7613   4.7706   4.7718   4.7935   4.7960
     4.8001   4.8045   4.8270   4.8322   4.8437   4.8545   4.8684   4.8742
     4.8807   4.8937   4.8998   4.9180   4.9191   4.9236   4.9255   4.9329
     4.9342   4.9365   4.9394   4.9401   4.9459   4.9472   4.9516   4.9535
     4.9557   4.9594   4.9631   4.9785   4.9816   5.0019   5.0068   5.0068
     5.0097   5.0114   5.0164   5.0269   5.0296   5.0433   5.0610   5.0615
     5.0624   5.0630   5.0668   5.0759   5.0781   5.0929   5.1001   5.1054
     5.1085   5.1215   5.1345   5.1361   5.1392   5.1396   5.1516   5.1547
     5.1588   5.1608   5.1699   5.1785   5.1929   5.1986   5.2097   5.2108
     5.2168   5.2258   5.2260   5.2272   5.2319   5.2330   5.2498   5.2500
     5.2579   5.2587   5.2593   5.2603   5.2646   5.2669   5.2733   5.2864
     5.2992   5.3120   5.3122   5.3245   5.3273   5.3292   5.3344   5.3357
     5.3386   5.3414   5.3529   5.3537   5.3620   5.3642   5.3692   5.3734
     5.3776   5.3969   5.4011   5.4061   5.4211   5.4284   5.4285   5.4322
     5.4432   5.4525   5.4707   5.4741   5.4780   5.5009   5.5021   5.5062
     5.5062   5.5086   5.5148   5.5255   5.5326   5.5438   5.5507   5.5579
     5.5665   5.5692   5.5725   5.5734   5.5810   5.5817   5.5877   5.5883
     5.5884   5.5984   5.5986   5.6050   5.6052   5.6383   5.6418   5.6465
     5.6503   5.6580   5.6594   5.6609   5.6681   5.6831   5.6851   5.6916
     5.7009   5.7035   5.7052   5.7091   5.7092   5.7297   5.7299   5.7328
     5.7333   5.7563   5.7565   5.7598   5.7640   5.7780   5.7906   5.7913
     5.7991   5.8007   5.8047   5.8068   5.8365   5.8397   5.8472   5.8485
     5.8644   5.8696   5.8738   5.8804   5.8937   5.8945   5.9056   5.9093
     5.9235   5.9236   5.9292   5.9371   5.9371   5.9463   5.9531   5.9534
     5.9659   5.9699   5.9713   5.9812   5.9937   5.9955   5.9984   6.0275
     6.0303   6.0321   6.0447   6.0450   6.0455   6.0553   6.0555   6.0590
     6.0651   6.0672   6.0760   6.0792   6.0852   6.0889   6.0912   6.0963
     6.0986   6.1019   6.1024   6.1101   6.1132   6.1189   6.1212   6.1315
     6.1338   6.1404   6.1455   6.1467   6.1497   6.1565   6.1586   6.1653
     6.1736   6.1742   6.1831   6.1833   6.1877   6.1893   6.1929   6.1987
     6.2010   6.2044   6.2060   6.2068   6.2157   6.2207   6.2229   6.2246
     6.2271   6.2301   6.2348   6.2378   6.2436   6.2472   6.2488   6.2515
     6.2581   6.2690   6.2742   6.2775   6.2819   6.2825   6.2867   6.2921
     6.2955   6.2969   6.3021   6.3087   6.3122   6.3149   6.3196   6.3199
     6.3243   6.3269   6.3367   6.3369   6.3378   6.3414   6.3452   6.3465
     6.3500   6.3525   6.3561   6.3642   6.3676   6.3733   6.3754   6.3820
     6.3833   6.3937   6.3951   6.3984   6.4012   6.4101   6.4199   6.4280
     6.4375   6.4443   6.4445   6.4472   6.4472   6.4675   6.4763   6.4795
     6.4812   6.4814   6.4823   6.4835   6.4967   6.5002   6.5082   6.5084
     6.5285   6.5350   6.5379   6.5397   6.5421   6.5453   6.5463   6.5508
     6.5519   6.5625   6.5768   6.5944   6.5974   6.6054   6.6063   6.6178
     6.6196   6.6249   6.6487   6.6538   6.6560   6.6613   6.6686   6.6791
     6.7015   6.7403   6.7484   6.7660   6.7858   6.7883   6.8422   6.8440
     6.9106   6.9538   7.0282   7.0355   7.0460   7.0980   7.1077   7.1109
     7.1245   7.1993   7.2038   7.2480   7.3597   7.3953   7.3982   7.4693
     7.5526   7.6292   7.7219   7.7231   7.7555   7.7926   7.7938   7.8826
     7.9081   7.9448   8.0550   8.1020   8.1390   8.1863   8.1908   8.2657
     8.2670   8.4424   8.5428   8.5445   8.5574   8.5654   8.6216   8.7580
     8.7745   8.8096   8.8448   8.8610   8.9424   8.9856   9.0161   9.0976
     9.1029   9.1661   9.1957   9.2502   9.2767   9.3704   9.4288   9.4415
     9.4738   9.5097   9.5953   9.5982   9.6424   9.6724   9.7590   9.8008
     9.8114   9.8566   9.9074   9.9117  10.0291  10.0777  10.1009  10.1406
    10.1418  10.1948  10.2084  10.3044  10.3274  10.3817  10.4572  10.5030
    10.5045  10.5648  10.5682  10.5810  10.6072  10.6579  10.6672  10.7768
    10.7969  10.9100  10.9418  10.9661  11.0387  11.0596  11.0895  11.1383
    11.1635  11.2196  11.2336  11.2416  11.2813  11.3055  11.3477  11.3506
    11.3927  11.4102  11.4244  11.4692  11.5350  11.5623  11.5724  11.5749
    11.5769  11.7031  11.8826  11.9239  11.9536  11.9608  12.0165  12.0316
    12.0719  12.0839  12.1052  12.1415  12.1802  12.1814  12.2921  12.3728
    12.4426  12.4711  12.4881  12.5364  12.5527  12.6182  12.6540  12.7003
    12.7425  12.7613  12.7969  12.8207  12.8445  12.9504  12.9774  13.0298
    13.0319  13.0914  13.1358  13.1713  13.1764  13.2617  13.2720  13.3352
    13.4010  13.4150  13.4285  13.5097  13.5814  13.5855  13.5984  13.5985
    13.6311  13.7216  13.7314  13.7981  13.8115  13.8514  13.8722  13.8969
    13.9578  13.9951  14.0052  14.0493  14.0599  14.0614  14.0629  14.1351
    14.1417  14.1656  14.1713  14.2963  14.2970  14.3056  14.3416  14.3873
    14.4004  14.4040  14.4242  14.4307  14.5301  14.6086

          k = 0.2500 0.2887 0.0000 (110158 PWs)   bands (ev):

    -0.6372  -0.2984   0.0043   0.1948   0.2062   0.3249   0.5170   0.7648
     0.7686   0.7925   0.9683   1.0401   1.0801   1.2912   1.3257   1.3420
     1.3786   1.4110   1.4343   1.4916   1.6014   1.6106   1.6117   1.6407
     1.6657   1.6683   1.7139   1.7257   1.7567   1.8475   1.8527   1.8594
     1.8861   1.8929   1.9155   1.9239   1.9331   1.9385   1.9572   1.9644
     1.9896   1.9967   2.0034   2.0399   2.0445   2.0489   2.0802   2.0953
     2.1097   2.1161   2.1472   2.1635   2.1647   2.1685   2.1799   2.1981
     2.1981   2.2065   2.2131   2.2215   2.2217   2.2221   2.2321   2.2387
     2.2394   2.2536   2.2608   2.2716   2.2762   2.3135   2.3212   2.3215
     2.3217   2.3234   2.3504   2.3722   2.3756   2.3771   2.3833   2.3859
     2.3883   2.3930   2.3941   2.3945   2.3984   2.4170   2.4659   2.4677
     2.4787   2.4793   2.4842   2.4959   2.5097   2.5112   2.5288   2.5328
     2.5414   2.5442   2.5527   2.5600   2.5644   2.5709   2.5866   2.5932
     2.6065   2.6086   2.6155   2.6238   2.6276   2.6332   2.6570   2.6828
     2.6865   2.6872   2.6938   2.6985   2.7089   2.7137   2.7139   2.7269
     2.7331   2.7374   2.7414   2.7475   2.7618   2.7635   2.7671   2.7713
     2.7844   2.8054   2.8087   2.8103   2.8146   2.8461   2.8545   2.8643
     2.8739   2.8813   2.9025   2.9241   2.9283   2.9332   2.9394   2.9423
     2.9486   2.9533   2.9570   2.9685   2.9806   3.0243   3.0289   3.0350
     3.0613   3.0714   3.0909   3.0985   3.1023   3.1121   3.1219   3.1242
     3.1265   3.1366   3.1503   3.1646   3.1753   3.1932   3.1934   3.2017
     3.2080   3.2243   3.2349   3.2459   3.2607   3.2638   3.2699   3.2742
     3.2754   3.2779   3.2908   3.2916   3.2986   3.2994   3.3120   3.3142
     3.3200   3.3232   3.3268   3.3420   3.3489   3.3509   3.3759   3.3814
     3.3938   3.3960   3.4094   3.4148   3.4221   3.4241   3.4548   3.4607
     3.4607   3.4609   3.4657   3.4688   3.4799   3.4952   3.4970   3.5009
     3.5142   3.5233   3.5254   3.5330   3.5368   3.5376   3.5479   3.5492
     3.5527   3.5582   3.5745   3.5791   3.5876   3.5906   3.5924   3.5949
     3.6156   3.6267   3.6270   3.6322   3.6390   3.6424   3.6455   3.6478
     3.6633   3.6771   3.6909   3.7011   3.7018   3.7045   3.7156   3.7236
     3.7345   3.7373   3.7410   3.7502   3.7508   3.7745   3.7994   3.8005
     3.8051   3.8070   3.8126   3.8246   3.8342   3.8367   3.8460   3.8486
     3.8546   3.8727   3.8777   3.8780   3.8915   3.8966   3.8986   3.8989
     3.9004   3.9095   3.9142   3.9144   3.9164   3.9179   3.9196   3.9223
     3.9322   3.9453   3.9485   3.9648   3.9662   3.9696   3.9813   3.9865
     3.9920   3.9930   3.9930   3.9946   4.0005   4.0118   4.0212   4.0255
     4.0284   4.0293   4.0407   4.0427   4.0446   4.0456   4.0471   4.0534
     4.0592   4.0611   4.0654   4.0695   4.0713   4.0746   4.0816   4.1074
     4.1099   4.1133   4.1216   4.1223   4.1229   4.1280   4.1352   4.1463
     4.1503   4.1512   4.1533   4.1611   4.1660   4.1691   4.1732   4.1817
     4.1912   4.1914   4.1934   4.1946   4.2021   4.2028   4.2058   4.2083
     4.2120   4.2130   4.2135   4.2241   4.2246   4.2248   4.2284   4.2432
     4.2443   4.2449   4.2475   4.2485   4.2541   4.2784   4.2794   4.2838
     4.2883   4.2912   4.2950   4.2976   4.2995   4.3004   4.3042   4.3100
     4.3123   4.3218   4.3280   4.3353   4.3358   4.3429   4.3456   4.3468
     4.3703   4.3763   4.3764   4.3768   4.3799   4.3830   4.3853   4.4077
     4.4101   4.4198   4.4246   4.4286   4.4318   4.4334   4.4415   4.4465
     4.4613   4.4657   4.4695   4.4722   4.4944   4.4978   4.5056   4.5159
     4.5160   4.5308   4.5326   4.5332   4.5452   4.5524   4.5549   4.5556
     4.5566   4.5601   4.5661   4.5810   4.5824   4.5834   4.5961   4.5966
     4.5975   4.6097   4.6105   4.6196   4.6251   4.6345   4.6373   4.6418
     4.6447   4.6533   4.6591   4.6707   4.6948   4.6964   4.7051   4.7122
     4.7130   4.7490   4.7680   4.7698   4.7727   4.7767   4.7798   4.7823
     4.7967   4.7990   4.8032   4.8172   4.8192   4.8316   4.8441   4.8508
     4.8545   4.8565   4.8764   4.8772   4.8797   4.8853   4.8856   4.8861
     4.9007   4.9022   4.9027   4.9074   4.9075   4.9118   4.9255   4.9410
     4.9442   4.9483   4.9551   4.9621   4.9691   4.9698   4.9713   4.9715
     4.9754   4.9784   5.0127   5.0144   5.0194   5.0298   5.0303   5.0315
     5.0406   5.0440   5.0569   5.0634   5.0698   5.0732   5.0749   5.0770
     5.0772   5.0934   5.1009   5.1107   5.1148   5.1180   5.1464   5.1602
     5.1610   5.1706   5.1715   5.1735   5.1886   5.1930   5.1948   5.2103
     5.2148   5.2150   5.2239   5.2254   5.2368   5.2442   5.2450   5.2518
     5.2568   5.2586   5.2709   5.2729   5.2812   5.2814   5.2904   5.2918
     5.2969   5.3067   5.3094   5.3200   5.3286   5.3343   5.3454   5.3456
     5.3613   5.3645   5.3670   5.3700   5.3727   5.3754   5.3878   5.3882
     5.3929   5.3931   5.3977   5.4065   5.4296   5.4387   5.4447   5.4458
     5.4518   5.4532   5.4620   5.4628   5.4637   5.4689   5.4707   5.4855
     5.4914   5.4945   5.4974   5.4999   5.5042   5.5237   5.5263   5.5265
     5.5317   5.5364   5.5372   5.5373   5.5491   5.5528   5.5733   5.5739
     5.5755   5.5879   5.5890   5.5951   5.5971   5.6052   5.6160   5.6410
     5.6420   5.6433   5.6439   5.6469   5.6489   5.6507   5.6509   5.6762
     5.6787   5.6862   5.6932   5.7087   5.7091   5.7117   5.7179   5.7226
     5.7234   5.7269   5.7279   5.7303   5.7373   5.7420   5.7493   5.7512
     5.7621   5.7689   5.7743   5.7808   5.7919   5.8010   5.8194   5.8263
     5.8268   5.8274   5.8406   5.8447   5.8460   5.8545   5.8626   5.8818
     5.8846   5.8959   5.9022   5.9137   5.9147   5.9222   5.9233   5.9277
     5.9371   5.9401   5.9418   5.9580   5.9633   5.9670   5.9705   5.9796
     6.0019   6.0110   6.0126   6.0273   6.0285   6.0296   6.0353   6.0390
     6.0483   6.0559   6.0636   6.0662   6.0720   6.0800   6.0871   6.0908
     6.0918   6.0930   6.0940   6.0948   6.1052   6.1082   6.1143   6.1155
     6.1197   6.1297   6.1341   6.1342   6.1418   6.1493   6.1496   6.1521
     6.1549   6.1552   6.1610   6.1709   6.1740   6.1743   6.1749   6.1892
     6.1920   6.1951   6.1992   6.2015   6.2025   6.2041   6.2082   6.2133
     6.2181   6.2201   6.2271   6.2287   6.2293   6.2345   6.2417   6.2426
     6.2475   6.2498   6.2524   6.2573   6.2576   6.2587   6.2647   6.2651
     6.2685   6.2732   6.2740   6.2766   6.2855   6.2856   6.2879   6.2886
     6.2959   6.2966   6.3004   6.3145   6.3148   6.3294   6.3390   6.3391
     6.3471   6.3474   6.3549   6.3588   6.3689   6.3710   6.3753   6.3772
     6.3802   6.3806   6.3881   6.3900   6.3968   6.3990   6.4012   6.4073
     6.4225   6.4316   6.4334   6.4443   6.4548   6.4668   6.4670   6.4734
     6.4739   6.4739   6.4778   6.4821   6.4933   6.5068   6.5269   6.5274
     6.5314   6.5371   6.5383   6.5407   6.5450   6.5463   6.5511   6.5595
     6.5728   6.5800   6.5803   6.5877   6.5898   6.6005   6.6145   6.6360
     6.6486   6.6532   6.6571   6.6678   6.6836   6.7043   6.7148   6.7421
     6.7574   6.7912   6.7985   6.8186   6.8403   6.8410   6.9054   6.9104
     6.9559   6.9641   6.9979   7.0723   7.0948   7.1288   7.1619   7.1914
     7.2304   7.2982   7.3758   7.3782   7.4281   7.4843   7.4997   7.5299
     7.5938   7.6275   7.6599   7.7034   7.7552   7.7589   7.7974   7.7976
     7.8869   7.8872   7.9256   7.9648   8.0865   8.1614   8.2564   8.2718
     8.3176   8.3490   8.4807   8.5146   8.5344   8.5433   8.6021   8.7207
     8.7451   8.8106   8.8315   8.8353   8.9239   8.9663   8.9804   9.0036
     9.0296   9.0600   9.1493   9.2328   9.2551   9.2601   9.3437   9.3714
     9.4157   9.4786   9.5628   9.5720   9.6172   9.6502   9.6509   9.7777
     9.7893   9.8020   9.8209   9.8360   9.8733   9.8841   9.8867   9.9663
    10.1476  10.2436  10.2578  10.2718  10.3086  10.3247  10.3431  10.3601
    10.5116  10.6972  10.7011  10.7338  10.7664  10.7994  10.8091  10.8353
    10.8767  11.0015  11.0041  11.0535  11.0595  11.1195  11.2009  11.2481
    11.2495  11.2711  11.2893  11.3367  11.3812  11.4398  11.4514  11.5397
    11.5533  11.5711  11.6097  11.6595  11.6653  11.6697  11.6727  11.7684
    11.8383  11.8471  11.8489  11.9437  11.9851  11.9862  12.0658  12.1167
    12.1274  12.1285  12.1628  12.2639  12.2721  12.2965  12.3098  12.4327
    12.4713  12.4790  12.4878  12.5138  12.5552  12.6278  12.6389  12.7128
    12.7262  12.7426  12.7827  12.8816  12.8893  12.9148  12.9857  12.9888
    13.0015  13.0879  13.0892  13.1106  13.1427  13.2729  13.2908  13.4128
    13.4543  13.4960  13.4975  13.5277  13.5648  13.5727  13.5798  13.6137
    13.6138  13.6343  13.6816  13.7384  13.7531  13.7952  13.8496  13.8777
    13.9057  13.9624  14.0027  14.0155  14.0575  14.1039  14.1439  14.1644
    14.1871  14.2006  14.2163  14.2191  14.2332  14.2535  14.2640  14.3138
    14.4198  14.4374  14.5468  14.5644  14.6132  14.6756

          k = 0.2500 0.4811 0.0000 (110079 PWs)   bands (ev):

    -0.4405  -0.1548  -0.1060   0.1714   0.1799   0.3815   0.4366   0.4920
     0.6469   0.7345   0.9458   0.9506   1.1544   1.1652   1.2038   1.2655
     1.3917   1.4700   1.4778   1.4964   1.5749   1.6491   1.6688   1.6800
     1.7011   1.7087   1.7712   1.7732   1.7997   1.8191   1.8669   1.8782
     1.9139   1.9188   1.9254   1.9641   2.0013   2.0015   2.0123   2.0129
     2.0199   2.0350   2.0357   2.0689   2.0731   2.1040   2.1074   2.1109
     2.1239   2.1308   2.1459   2.1482   2.1538   2.1546   2.1707   2.1913
     2.1931   2.2042   2.2086   2.2133   2.2157   2.2288   2.2802   2.2804
     2.2860   2.2884   2.2890   2.2921   2.2943   2.3010   2.3048   2.3163
     2.3279   2.3413   2.3456   2.3517   2.3624   2.3668   2.3731   2.3736
     2.3875   2.3886   2.3889   2.4083   2.4122   2.4178   2.4278   2.4322
     2.4338   2.4555   2.4591   2.4734   2.4815   2.4923   2.4930   2.5015
     2.5061   2.5109   2.5340   2.5377   2.5466   2.5472   2.5720   2.5780
     2.5897   2.5897   2.5901   2.5972   2.6015   2.6242   2.6296   2.6379
     2.6479   2.6485   2.6627   2.6633   2.6757   2.6849   2.6855   2.7062
     2.7098   2.7122   2.7157   2.7200   2.7330   2.7333   2.7507   2.7524
     2.7532   2.7623   2.7773   2.7929   2.7935   2.8040   2.8118   2.8250
     2.8306   2.8313   2.8480   2.8610   2.8660   2.8787   2.8937   2.8953
     2.8980   2.9006   2.9053   2.9191   2.9193   2.9698   2.9765   2.9845
     3.0026   3.0185   3.0231   3.0294   3.0640   3.0752   3.0915   3.1065
     3.1113   3.1230   3.1447   3.1693   3.1707   3.1761   3.1880   3.1956
     3.2073   3.2210   3.2239   3.2249   3.2427   3.2598   3.2739   3.2934
     3.3060   3.3062   3.3099   3.3187   3.3244   3.3295   3.3393   3.3466
     3.3480   3.3514   3.3578   3.3597   3.3674   3.3859   3.3859   3.4080
     3.4116   3.4166   3.4366   3.4426   3.4469   3.4472   3.4624   3.4731
     3.4783   3.4857   3.4912   3.5042   3.5053   3.5071   3.5224   3.5241
     3.5342   3.5375   3.5395   3.5529   3.5531   3.5614   3.5626   3.5865
     3.5890   3.5924   3.5971   3.5983   3.6086   3.6103   3.6134   3.6173
     3.6175   3.6215   3.6307   3.6497   3.6545   3.6588   3.6702   3.6737
     3.6918   3.7059   3.7139   3.7155   3.7247   3.7370   3.7468   3.7480
     3.7593   3.7635   3.7662   3.7778   3.7922   3.7956   3.8030   3.8127
     3.8146   3.8272   3.8288   3.8381   3.8391   3.8501   3.8542   3.8569
     3.8702   3.8712   3.8803   3.8817   3.8922   3.8937   3.9000   3.9185
     3.9309   3.9343   3.9355   3.9449   3.9521   3.9628   3.9725   3.9744
     3.9762   3.9807   3.9833   3.9973   3.9978   4.0053   4.0098   4.0104
     4.0234   4.0302   4.0306   4.0334   4.0359   4.0641   4.0661   4.0664
     4.0746   4.0780   4.0783   4.0811   4.0928   4.0957   4.0959   4.0963
     4.1010   4.1054   4.1109   4.1115   4.1282   4.1301   4.1321   4.1376
     4.1380   4.1484   4.1501   4.1529   4.1539   4.1585   4.1610   4.1692
     4.1747   4.1826   4.1833   4.1911   4.1930   4.1986   4.1989   4.2055
     4.2082   4.2085   4.2086   4.2186   4.2190   4.2228   4.2242   4.2285
     4.2287   4.2299   4.2312   4.2346   4.2473   4.2505   4.2509   4.2648
     4.2668   4.2697   4.2730   4.2863   4.2919   4.2934   4.2939   4.2994
     4.3026   4.3031   4.3036   4.3122   4.3216   4.3228   4.3297   4.3322
     4.3331   4.3512   4.3527   4.3542   4.3572   4.3622   4.3650   4.3764
     4.3879   4.3935   4.3964   4.3965   4.3982   4.4040   4.4059   4.4127
     4.4320   4.4340   4.4355   4.4399   4.4594   4.4609   4.4648   4.4714
     4.4753   4.4803   4.4953   4.4989   4.5038   4.5142   4.5242   4.5338
     4.5345   4.5367   4.5409   4.5423   4.5478   4.5557   4.5560   4.5759
     4.5822   4.5829   4.5896   4.6009   4.6068   4.6098   4.6191   4.6215
     4.6236   4.6272   4.6341   4.6385   4.6427   4.6622   4.6655   4.6784
     4.6851   4.6853   4.6883   4.6904   4.6926   4.6995   4.7013   4.7084
     4.7145   4.7179   4.7231   4.7244   4.7267   4.7276   4.7345   4.7483
     4.7554   4.7580   4.7639   4.7676   4.7863   4.7892   4.7894   4.7961
     4.8184   4.8188   4.8335   4.8366   4.8404   4.8431   4.8488   4.8634
     4.8756   4.9099   4.9105   4.9153   4.9207   4.9263   4.9273   4.9281
     4.9331   4.9425   4.9469   4.9569   4.9628   4.9677   4.9680   4.9753
     5.0071   5.0128   5.0132   5.0153   5.0189   5.0218   5.0322   5.0347
     5.0508   5.0563   5.0592   5.0700   5.0704   5.0714   5.0742   5.0773
     5.0860   5.0942   5.1000   5.1037   5.1231   5.1254   5.1290   5.1432
     5.1485   5.1551   5.1557   5.1566   5.1704   5.1726   5.1741   5.1831
     5.1843   5.1871   5.1946   5.2086   5.2145   5.2193   5.2265   5.2280
     5.2300   5.2301   5.2380   5.2443   5.2605   5.2608   5.2722   5.2808
     5.2816   5.2972   5.3036   5.3156   5.3206   5.3216   5.3269   5.3280
     5.3348   5.3478   5.3480   5.3556   5.3563   5.3609   5.3720   5.3766
     5.3790   5.3919   5.3928   5.3978   5.4003   5.4067   5.4106   5.4192
     5.4234   5.4377   5.4435   5.4509   5.4563   5.4638   5.4674   5.4717
     5.4914   5.4970   5.4986   5.4987   5.5064   5.5138   5.5192   5.5194
     5.5268   5.5272   5.5293   5.5310   5.5333   5.5358   5.5432   5.5435
     5.5519   5.5582   5.5651   5.5777   5.5797   5.5871   5.5922   5.5939
     5.6078   5.6101   5.6219   5.6223   5.6238   5.6303   5.6342   5.6355
     5.6399   5.6521   5.6756   5.6794   5.6939   5.6945   5.6965   5.6966
     5.6974   5.7012   5.7089   5.7148   5.7197   5.7258   5.7412   5.7515
     5.7562   5.7609   5.7629   5.7679   5.7855   5.7909   5.7926   5.7938
     5.7962   5.8007   5.8068   5.8184   5.8230   5.8261   5.8403   5.8620
     5.8641   5.8728   5.8749   5.8764   5.9010   5.9080   5.9080   5.9155
     5.9217   5.9290   5.9377   5.9397   5.9515   5.9525   5.9543   5.9552
     5.9558   5.9563   5.9587   5.9701   5.9748   5.9805   5.9885   6.0003
     6.0126   6.0186   6.0289   6.0316   6.0322   6.0437   6.0462   6.0528
     6.0603   6.0629   6.0724   6.0786   6.0884   6.0909   6.0923   6.1030
     6.1039   6.1064   6.1077   6.1206   6.1214   6.1241   6.1346   6.1462
     6.1471   6.1472   6.1480   6.1492   6.1498   6.1558   6.1559   6.1562
     6.1643   6.1673   6.1731   6.1747   6.1755   6.1800   6.1805   6.1841
     6.1870   6.2012   6.2036   6.2101   6.2154   6.2190   6.2196   6.2201
     6.2270   6.2325   6.2326   6.2368   6.2427   6.2440   6.2480   6.2518
     6.2558   6.2598   6.2607   6.2774   6.2810   6.2855   6.2889   6.2921
     6.3053   6.3209   6.3260   6.3261   6.3308   6.3347   6.3348   6.3379
     6.3424   6.3537   6.3576   6.3638   6.3809   6.3809   6.3856   6.3877
     6.3911   6.3921   6.4026   6.4072   6.4199   6.4233   6.4266   6.4346
     6.4420   6.4422   6.4529   6.4676   6.4812   6.4813   6.4921   6.4973
     6.5015   6.5031   6.5102   6.5105   6.5115   6.5152   6.5188   6.5318
     6.5375   6.5399   6.5406   6.5469   6.5491   6.5497   6.5573   6.5639
     6.5678   6.5812   6.5978   6.5995   6.6074   6.6149   6.6351   6.6461
     6.6593   6.6613   6.6647   6.6675   6.7074   6.7673   6.7707   6.7857
     6.8183   6.8231   6.8330   6.8356   6.8426   6.8496   6.9116   6.9228
     6.9712   7.0300   7.0386   7.0593   7.1255   7.1762   7.1870   7.2484
     7.2757   7.2824   7.3263   7.3457   7.3470   7.4137   7.4282   7.5203
     7.5369   7.5600   7.5887   7.6640   7.6745   7.8112   7.8643   7.8947
     7.9625   8.0189   8.0371   8.0873   8.1269   8.1448   8.1657   8.2465
     8.2605   8.2863   8.3482   8.3510   8.3646   8.5789   8.6162   8.7692
     8.7778   8.8022   8.8811   8.9239   8.9535   8.9939   9.0042   9.0264
     9.0301   9.0950   9.1235   9.1890   9.2665   9.3013   9.3083   9.4092
     9.4170   9.4699   9.4730   9.4747   9.6377   9.6380   9.6382   9.6859
     9.7734   9.7988   9.8382   9.8460   9.8570   9.9280   9.9887  10.0032
    10.0539  10.0797  10.1180  10.1338  10.2083  10.2790  10.3041  10.3669
    10.3903  10.5122  10.5469  10.5824  10.5972  10.6120  10.7551  10.7869
    10.8615  10.8782  10.8846  10.8934  10.9458  11.0970  11.1786  11.2046
    11.2234  11.2673  11.2953  11.3707  11.3916  11.5077  11.5899  11.6101
    11.6901  11.6990  11.7291  11.7681  11.9384  11.9504  12.0032  12.0397
    12.0777  12.1099  12.1187  12.1582  12.2227  12.2392  12.2483  12.2769
    12.2801  12.3200  12.3316  12.4729  12.4820  12.5525  12.5627  12.5662
    12.5672  12.6026  12.6305  12.6483  12.7155  12.7314  12.7608  12.7797
    12.8587  12.8732  12.9347  12.9476  12.9985  13.0057  13.0060  13.0129
    13.0743  13.1324  13.1333  13.1404  13.2139  13.2606  13.2668  13.3322
    13.3371  13.3808  13.4395  13.5180  13.5361  13.5406  13.5420  13.5621
    13.6195  13.6481  13.6859  13.7194  13.7468  13.7479  13.7588  13.8518
    13.8605  13.8626  13.8813  13.8837  13.9067  14.0042  14.1280  14.1484
    14.1992  14.2329  14.2537  14.2609  14.2764  14.3153  14.3236  14.3518
    14.3599  14.3665  14.4033  14.4674  14.4854  14.5862

          k = 0.4167 0.0962 0.0000 (110125 PWs)   bands (ev):

    -0.5876  -0.3680  -0.2496  -0.0349   0.2427   0.4510   0.7500   0.8163
     0.9341   1.0199   1.0260   1.1687   1.1954   1.3393   1.3532   1.4024
     1.4232   1.4555   1.5407   1.5603   1.5752   1.6066   1.6083   1.6470
     1.6540   1.6937   1.7255   1.7427   1.7555   1.7632   1.7975   1.8361
     1.8383   1.8517   1.8536   1.8582   1.8898   1.9269   1.9310   1.9355
     1.9417   1.9442   1.9646   1.9686   1.9730   1.9865   1.9923   2.0083
     2.0150   2.0435   2.0593   2.0855   2.0886   2.1027   2.1097   2.1379
     2.1387   2.1458   2.1685   2.1984   2.1986   2.2043   2.2167   2.2246
     2.2308   2.2416   2.2445   2.2513   2.2804   2.2892   2.3080   2.3261
     2.3318   2.3433   2.3437   2.3478   2.3550   2.3553   2.3930   2.4010
     2.4163   2.4224   2.4284   2.4284   2.4307   2.4665   2.4878   2.4890
     2.4985   2.5136   2.5203   2.5322   2.5394   2.5477   2.5522   2.5643
     2.5681   2.5683   2.5777   2.5826   2.5924   2.5963   2.6072   2.6191
     2.6211   2.6600   2.6684   2.6792   2.6824   2.6989   2.7040   2.7048
     2.7086   2.7164   2.7236   2.7341   2.7551   2.7572   2.7667   2.7676
     2.7747   2.7828   2.7841   2.7855   2.7883   2.7956   2.8081   2.8147
     2.8213   2.8467   2.8532   2.8572   2.8791   2.8833   2.8982   2.9033
     2.9154   2.9215   2.9313   2.9350   2.9424   2.9433   2.9595   2.9599
     2.9869   3.0440   3.0502   3.0563   3.0637   3.0662   3.0697   3.0850
[...]
     4.2250   4.2319   4.2337   4.2363   4.2405   4.2452   4.2466   4.2529
     4.2576   4.2619   4.2644   4.2646   4.2647   4.2693   4.2794   4.2795
     4.2896   4.2896   4.2897   4.2940   4.3101   4.3113   4.3137   4.3137
     4.3176   4.3242   4.3320   4.3352   4.3391   4.3408   4.3438   4.3498
     4.3582   4.3693   4.3780   4.3811   4.3812   4.3900   4.3909   4.3985
     4.4064   4.4095   4.4116   4.4131   4.4228   4.4285   4.4363   4.4387
     4.4400   4.4442   4.4469   4.4492   4.4591   4.4655   4.4716   4.4752
     4.4814   4.4816   4.5034   4.5153   4.5197   4.5280   4.5361   4.5483
     4.5542   4.5637   4.5768   4.5777   4.5789   4.5805   4.5828   4.5843
     4.5867   4.5903   4.5915   4.5951   4.6013   4.6078   4.6095   4.6122
     4.6278   4.6308   4.6327   4.6435   4.6456   4.6542   4.6545   4.6567
     4.6644   4.6663   4.6740   4.6745   4.6793   4.6841   4.6880   4.6990
     4.7018   4.7020   4.7092   4.7120   4.7154   4.7210   4.7319   4.7319
     4.7355   4.7528   4.7556   4.7613   4.7757   4.7842   4.7950   4.8105
     4.8106   4.8115   4.8123   4.8157   4.8239   4.8460   4.8572   4.8615
     4.8659   4.8701   4.8792   4.8812   4.8835   4.8952   4.9028   4.9057
     4.9127   4.9264   4.9424   4.9487   4.9505   4.9542   4.9568   4.9599
     4.9688   4.9778   4.9813   4.9824   4.9957   5.0013   5.0015   5.0041
     5.0078   5.0112   5.0128   5.0270   5.0296   5.0313   5.0385   5.0472
     5.0558   5.0689   5.0744   5.0797   5.0993   5.0995   5.1038   5.1108
     5.1175   5.1192   5.1237   5.1379   5.1400   5.1423   5.1486   5.1786
     5.1880   5.1900   5.1920   5.1935   5.1992   5.2005   5.2363   5.2402
     5.2448   5.2505   5.2511   5.2562   5.2675   5.2733   5.2741   5.2746
     5.2746   5.3005   5.3232   5.3283   5.3488   5.3517   5.3590   5.3608
     5.3613   5.3631   5.3689   5.3695   5.3796   5.3901   5.3939   5.4086
     5.4135   5.4212   5.4300   5.4329   5.4353   5.4397   5.4443   5.4478
     5.4520   5.4582   5.4670   5.4746   5.4757   5.4759   5.4819   5.4835
     5.4862   5.4929   5.4969   5.5077   5.5124   5.5276   5.5319   5.5325
     5.5351   5.5352   5.5462   5.5619   5.5659   5.5666   5.5752   5.5810
     5.5824   5.5881   5.5894   5.6005   5.6086   5.6164   5.6188   5.6235
     5.6323   5.6461   5.6587   5.6600   5.6670   5.6702   5.6704   5.6729
     5.6742   5.6833   5.6846   5.6851   5.6972   5.7018   5.7039   5.7384
     5.7510   5.7524   5.7552   5.7618   5.7627   5.7682   5.7695   5.7792
     5.7851   5.7867   5.7939   5.8025   5.8086   5.8158   5.8219   5.8262
     5.8307   5.8336   5.8399   5.8419   5.8442   5.8487   5.8631   5.8634
     5.8667   5.8698   5.8957   5.8960   5.8989   5.9032   5.9063   5.9219
     5.9248   5.9261   5.9413   5.9515   5.9527   5.9698   5.9725   5.9794
     5.9809   5.9827   5.9922   5.9939   6.0058   6.0070   6.0209   6.0247
     6.0351   6.0398   6.0407   6.0442   6.0447   6.0465   6.0595   6.0628
     6.0647   6.0742   6.0753   6.0786   6.0791   6.0815   6.0988   6.1019
     6.1183   6.1249   6.1336   6.1390   6.1401   6.1460   6.1504   6.1530
     6.1534   6.1663   6.1707   6.1744   6.1774   6.1782   6.1850   6.1852
     6.1854   6.1854   6.1949   6.1951   6.2033   6.2039   6.2041   6.2153
     6.2164   6.2165   6.2173   6.2205   6.2223   6.2223   6.2273   6.2301
     6.2344   6.2347   6.2434   6.2439   6.2494   6.2503   6.2574   6.2652
     6.2653   6.2660   6.2751   6.2811   6.2943   6.2979   6.2992   6.3062
     6.3108   6.3220   6.3309   6.3319   6.3324   6.3393   6.3443   6.3451
     6.3646   6.3681   6.3738   6.3790   6.3790   6.3867   6.3868   6.3915
     6.4053   6.4064   6.4064   6.4065   6.4103   6.4119   6.4176   6.4305
     6.4358   6.4447   6.4448   6.4486   6.4546   6.4572   6.4594   6.4615
     6.4770   6.4799   6.4816   6.4930   6.5002   6.5127   6.5159   6.5165
     6.5280   6.5281   6.5308   6.5321   6.5519   6.5562   6.5590   6.5598
     6.5634   6.5648   6.5712   6.5798   6.5894   6.6244   6.6252   6.6373
     6.6391   6.6464   6.6477   6.6611   6.6613   6.6867   6.6884   6.7004
     6.7037   6.7073   6.7103   6.7129   6.7859   6.7900   6.8083   6.8305
     6.9008   6.9038   6.9632   7.0369   7.0448   7.0525   7.0565   7.0719
     7.0725   7.1245   7.1588   7.1977   7.2156   7.3104   7.3472   7.3800
     7.4952   7.5687   7.5833   7.6056   7.6135   7.6510   7.6810   7.6836
     7.8154   7.8625   7.8906   7.8962   7.9145   8.1150   8.2540   8.2719
     8.3435   8.4010   8.4280   8.4910   8.5024   8.5653   8.5742   8.5797
     8.6556   8.7092   8.7554   8.9269   8.9832   9.0182   9.0192   9.0663
     9.1224   9.1775   9.2274   9.3042   9.3184   9.4021   9.4168   9.4512
     9.5026   9.5992   9.6119   9.6257   9.6730   9.7537   9.8261   9.8455
     9.8883   9.8994   9.9024   9.9146   9.9212   9.9251  10.0438  10.1068
    10.1183  10.1417  10.2201  10.2489  10.2961  10.4139  10.4217  10.4616
    10.4932  10.5331  10.5512  10.5535  10.5841  10.6277  10.7317  10.7646
    10.8097  10.8576  10.8739  11.0009  11.0368  11.0518  11.0607  11.0828
    11.1012  11.1538  11.2436  11.2807  11.2939  11.2965  11.3894  11.4190
    11.4985  11.5453  11.5491  11.5827  11.6985  11.7827  11.8596  11.8924
    11.9459  12.0280  12.0836  12.0925  12.1211  12.1903  12.1921  12.2856
    12.3049  12.3445  12.3495  12.3900  12.3904  12.4530  12.4784  12.4983
    12.5622  12.5979  12.6506  12.6592  12.6903  12.7774  12.8316  12.8746
    12.9365  12.9770  12.9818  13.0402  13.0762  13.1129  13.1486  13.1662
    13.1682  13.2451  13.2626  13.2769  13.2784  13.3222  13.3732  13.3735
    13.4158  13.4832  13.5245  13.5395  13.5421  13.6268  13.6399  13.6616
    13.7076  13.7484  13.7665  13.7674  13.8268  13.8337  13.9447  13.9555
    13.9643  14.0389  14.0431  14.0745  14.0911  14.1424  14.1921  14.2054
    14.2433  14.2494  14.3198  14.3747  14.3754  14.3760  14.3829  14.4080
    14.4870  14.4986  14.5304  14.5308  14.5538  14.5968

     the Fermi energy is     8.2690 ev

!    total energy              =  -14692.71339620 Ry
     estimated scf accuracy    <       0.00000022 Ry
     smearing contrib. (-TS)   =       0.18968943 Ry
     internal energy E=F+TS    =  -14692.90308563 Ry

     The total energy is F=E-TS. E is the sum of the following terms:
     one-electron contribution =  -67798.40117270 Ry
     hartree contribution      =   35396.64895991 Ry
     xc contribution           =   -7102.01489814 Ry
     ewald contribution        =   24810.86402531 Ry

     convergence has been achieved in  21 iterations

     negative rho (up, down):  3.918E+00 0.000E+00

     Forces acting on atoms (cartesian axes, Ry/au):

     atom    1 type  1   force =     0.00000000   -0.00165163    0.02682150
     atom    2 type  1   force =    -0.00000212   -0.00165149    0.02681926
     atom    3 type  1   force =     0.00000000   -0.00165310    0.02681932
     atom    4 type  1   force =     0.00000000   -0.00165185    0.02682128
     atom    5 type  1   force =     0.00000212   -0.00165149    0.02681926
     atom    6 type  1   force =    -0.00000214   -0.00165161    0.02681917
     atom    7 type  1   force =     0.00000000   -0.00165313    0.02681924
     atom    8 type  1   force =     0.00000214   -0.00165161    0.02681917
     atom    9 type  1   force =    -0.00000250    0.00333918   -0.01652925
     atom   10 type  1   force =    -0.00000245    0.00333834   -0.01652897
     atom   11 type  1   force =     0.00000245    0.00333834   -0.01652897
     atom   12 type  1   force =    -0.00000251    0.00333919   -0.01652914
     atom   13 type  1   force =     0.00000260    0.00333841   -0.01652892
     atom   14 type  1   force =     0.00000250    0.00333918   -0.01652925
     atom   15 type  1   force =    -0.00000260    0.00333841   -0.01652892
     atom   16 type  1   force =     0.00000251    0.00333919   -0.01652914
     atom   17 type  1   force =    -0.00000232   -0.00158396   -0.00960864
     atom   18 type  1   force =    -0.00000221   -0.00158366   -0.00960869
     atom   19 type  1   force =     0.00000000   -0.00158384   -0.00960701
     atom   20 type  1   force =     0.00000000   -0.00158392   -0.00961065
     atom   21 type  1   force =     0.00000232   -0.00158396   -0.00960864
     atom   22 type  1   force =     0.00000000   -0.00158368   -0.00961051
     atom   23 type  1   force =     0.00000221   -0.00158366   -0.00960869
     atom   24 type  1   force =     0.00000000   -0.00158362   -0.00960718
     atom   25 type  1   force =    -0.00000226    0.00056142   -0.00383513
     atom   26 type  1   force =     0.00000182   -0.00053390    0.00458045
     atom   27 type  1   force =     0.00000000    0.00056097   -0.00383506
     atom   28 type  1   force =     0.00000226    0.00056142   -0.00383513
     atom   29 type  1   force =    -0.00000192   -0.00053405    0.00458161
     atom   30 type  1   force =    -0.00000182   -0.00053390    0.00458045
     atom   31 type  1   force =    -0.00000230    0.00056138   -0.00383508
     atom   32 type  1   force =     0.00000000    0.00056089   -0.00383504
     atom   33 type  1   force =     0.00000230    0.00056138   -0.00383508
     atom   34 type  1   force =     0.00000000    0.00056175   -0.00383337
     atom   35 type  1   force =    -0.00000192   -0.00053405    0.00458160
     atom   36 type  1   force =    -0.00000181   -0.00053395    0.00458038
     atom   37 type  1   force =     0.00000192   -0.00053405    0.00458161
     atom   38 type  1   force =     0.00000192   -0.00053405    0.00458160
     atom   39 type  1   force =     0.00000000    0.00056161   -0.00383328
     atom   40 type  1   force =     0.00000181   -0.00053395    0.00458038
     atom   41 type  1   force =     0.00000186   -0.00045234   -0.00050287
     atom   42 type  1   force =     0.00000000    0.00028574   -0.00073370
     atom   43 type  1   force =    -0.00000218    0.00028658   -0.00073424
     atom   44 type  1   force =     0.00000000    0.00028695   -0.00073551
     atom   45 type  1   force =    -0.00000244   -0.00045275   -0.00050348
     atom   46 type  1   force =    -0.00000222    0.00028657   -0.00073430
     atom   47 type  1   force =     0.00000000    0.00028687   -0.00073568
     atom   48 type  1   force =     0.00000222    0.00028657   -0.00073430
     atom   49 type  1   force =    -0.00000242   -0.00045275   -0.00050356
     atom   50 type  1   force =    -0.00000186   -0.00045234   -0.00050287
     atom   51 type  1   force =    -0.00000198   -0.00045233   -0.00050295
     atom   52 type  1   force =     0.00000198   -0.00045233   -0.00050295
     atom   53 type  1   force =     0.00000244   -0.00045275   -0.00050348
     atom   54 type  1   force =     0.00000000    0.00028566   -0.00073379
     atom   55 type  1   force =     0.00000218    0.00028658   -0.00073424
     atom   56 type  1   force =     0.00000242   -0.00045275   -0.00050356
     atom   57 type  1   force =    -0.00000134   -0.00018687    0.00042001
     atom   58 type  1   force =     0.00000132   -0.00018685    0.00042003
     atom   59 type  1   force =     0.00000000    0.00019688   -0.00055658
     atom   60 type  1   force =    -0.00000132   -0.00018685    0.00042003
     atom   61 type  1   force =    -0.00000161   -0.00018709    0.00042009
     atom   62 type  1   force =    -0.00000154   -0.00018706    0.00042003
     atom   63 type  1   force =     0.00000161   -0.00018709    0.00042009
     atom   64 type  1   force =    -0.00000245    0.00019769   -0.00055719
     atom   65 type  1   force =    -0.00000241    0.00019783   -0.00055722
     atom   66 type  1   force =     0.00000000    0.00019711   -0.00055645
     atom   67 type  1   force =     0.00000245    0.00019769   -0.00055719
     atom   68 type  1   force =     0.00000000    0.00019720   -0.00055802
     atom   69 type  1   force =     0.00000154   -0.00018706    0.00042003
     atom   70 type  1   force =     0.00000134   -0.00018687    0.00042001
     atom   71 type  1   force =     0.00000241    0.00019783   -0.00055722
     atom   72 type  1   force =     0.00000000    0.00019734   -0.00055803
     atom   73 type  1   force =    -0.00000252    0.00018843   -0.00042187
     atom   74 type  1   force =     0.00000000    0.00018814   -0.00042239
     atom   75 type  1   force =     0.00000252    0.00018843   -0.00042187
     atom   76 type  1   force =    -0.00000237   -0.00019673    0.00055559
     atom   77 type  1   force =    -0.00000177   -0.00019563    0.00055570
     atom   78 type  1   force =    -0.00000186   -0.00019566    0.00055564
     atom   79 type  1   force =    -0.00000244    0.00018844   -0.00042177
     atom   80 type  1   force =     0.00000000    0.00018806   -0.00042234
     atom   81 type  1   force =     0.00000244    0.00018844   -0.00042177
     atom   82 type  1   force =     0.00000000    0.00018901   -0.00042327
     atom   83 type  1   force =     0.00000000    0.00018900   -0.00042319
     atom   84 type  1   force =    -0.00000241   -0.00019684    0.00055553
     atom   85 type  1   force =     0.00000177   -0.00019563    0.00055570
     atom   86 type  1   force =     0.00000186   -0.00019566    0.00055564
     atom   87 type  1   force =     0.00000237   -0.00019673    0.00055559
     atom   88 type  1   force =     0.00000241   -0.00019684    0.00055553
     atom   89 type  1   force =     0.00000000    0.00045278    0.00050994
     atom   90 type  1   force =     0.00000000    0.00045277    0.00050988
     atom   91 type  1   force =    -0.00000338    0.00045362    0.00051003
     atom   92 type  1   force =    -0.00000340    0.00045365    0.00050996
     atom   93 type  1   force =     0.00000000    0.00045288    0.00050940
     atom   94 type  1   force =     0.00000338    0.00045362    0.00051003
     atom   95 type  1   force =    -0.00000239   -0.00028553    0.00073727
     atom   96 type  1   force =    -0.00000242   -0.00028571    0.00073844
     atom   97 type  1   force =     0.00000242   -0.00028571    0.00073844
     atom   98 type  1   force =    -0.00000235   -0.00028553    0.00073723
     atom   99 type  1   force =    -0.00000240   -0.00028569    0.00073840
     atom  100 type  1   force =     0.00000240   -0.00028569    0.00073840
     atom  101 type  1   force =     0.00000239   -0.00028553    0.00073727
     atom  102 type  1   force =     0.00000235   -0.00028553    0.00073723
     atom  103 type  1   force =     0.00000000    0.00045284    0.00050925
     atom  104 type  1   force =     0.00000340    0.00045365    0.00050996
     atom  105 type  1   force =     0.00000155   -0.00056054    0.00382898
     atom  106 type  1   force =     0.00000000    0.00053556   -0.00458667
     atom  107 type  1   force =     0.00000256    0.00053452   -0.00458645
     atom  108 type  1   force =     0.00000000    0.00053328   -0.00458605
     atom  109 type  1   force =    -0.00000150   -0.00056055    0.00382901
     atom  110 type  1   force =    -0.00000155   -0.00056054    0.00382898
     atom  111 type  1   force =    -0.00000119   -0.00056091    0.00382843
     atom  112 type  1   force =    -0.00000119   -0.00056092    0.00382841
     atom  113 type  1   force =     0.00000119   -0.00056091    0.00382843
     atom  114 type  1   force =     0.00000119   -0.00056092    0.00382841
     atom  115 type  1   force =     0.00000150   -0.00056055    0.00382901
     atom  116 type  1   force =    -0.00000252    0.00053435   -0.00458649
     atom  117 type  1   force =    -0.00000256    0.00053452   -0.00458645
     atom  118 type  1   force =     0.00000000    0.00053534   -0.00458682
     atom  119 type  1   force =     0.00000252    0.00053435   -0.00458649
     atom  120 type  1   force =     0.00000000    0.00053314   -0.00458599
     atom  121 type  1   force =     0.00000274   -0.00333837    0.01652515
     atom  122 type  1   force =     0.00000000   -0.00333807    0.01652682
     atom  123 type  1   force =    -0.00000126    0.00158211    0.00960316
     atom  124 type  1   force =     0.00000126    0.00158211    0.00960316
     atom  125 type  1   force =     0.00000119    0.00158081    0.00960587
     atom  126 type  1   force =    -0.00000279   -0.00333851    0.01652507
     atom  127 type  1   force =    -0.00000274   -0.00333837    0.01652515
     atom  128 type  1   force =     0.00000000   -0.00333845    0.01652458
     atom  129 type  1   force =     0.00000000   -0.00333841    0.01652468
     atom  130 type  1   force =     0.00000279   -0.00333851    0.01652507
     atom  131 type  1   force =     0.00000000   -0.00333817    0.01652668
     atom  132 type  1   force =    -0.00000122    0.00158077    0.00960603
     atom  133 type  1   force =    -0.00000119    0.00158081    0.00960587
     atom  134 type  1   force =    -0.00000130    0.00158209    0.00960327
     atom  135 type  1   force =     0.00000130    0.00158209    0.00960327
     atom  136 type  1   force =     0.00000122    0.00158077    0.00960603
     atom  137 type  1   force =    -0.00000123    0.00164765   -0.02680828
     atom  138 type  1   force =     0.00000017    0.00164967   -0.02680521
     atom  139 type  1   force =    -0.00000047    0.00164968   -0.02680520
     atom  140 type  1   force =    -0.00000017    0.00164967   -0.02680521
     atom  141 type  1   force =     0.00000121    0.00164751   -0.02680791
     atom  142 type  1   force =     0.00000123    0.00164765   -0.02680828
     atom  143 type  1   force =    -0.00000121    0.00164751   -0.02680791
     atom  144 type  1   force =     0.00000047    0.00164968   -0.02680520

     Total force =     0.134978     Total SCF correction =     0.002450
 
     init_run     :     65.61s CPU     34.82s WALL (       1 calls)
     electrons    :   3606.58s CPU   1843.19s WALL (       1 calls)
     forces       :     25.49s CPU     13.46s WALL (       1 calls)

     Called by init_run:
     wfcinit      :     63.60s CPU     33.05s WALL (       1 calls)
     potinit      :      0.35s CPU      0.21s WALL (       1 calls)
     hinit0       :      0.35s CPU      0.24s WALL (       1 calls)

     Called by electrons:
     c_bands      :   3280.77s CPU   1675.21s WALL (      22 calls)
     sum_band     :    319.41s CPU    164.26s WALL (      22 calls)
     v_of_rho     :      2.13s CPU      1.15s WALL (      22 calls)
     newd         :      3.78s CPU      2.34s WALL (      22 calls)
     mix_rho      :      0.49s CPU      0.25s WALL (      22 calls)

     Called by c_bands:
     init_us_2    :      8.24s CPU      4.20s WALL (     414 calls)
     cegterg      :   3236.61s CPU   1652.62s WALL (     198 calls)

     Called by *egterg:
     cdiaghg      :    888.55s CPU    451.90s WALL (    1565 calls)
     h_psi        :   1343.68s CPU    687.94s WALL (    1583 calls)
     s_psi        :    173.75s CPU     88.65s WALL (    1583 calls)
     g_psi        :      2.00s CPU      1.02s WALL (    1376 calls)

     Called by h_psi:
     h_psi:calbec :    219.95s CPU    114.12s WALL (    1583 calls)
     vloc_psi     :    942.60s CPU    481.19s WALL (    1583 calls)
     add_vuspsi   :    176.37s CPU     90.08s WALL (    1583 calls)

     General routines
     calbec       :    329.47s CPU    170.99s WALL (    1817 calls)
     fft          :      2.06s CPU      1.07s WALL (     296 calls)
     ffts         :      0.25s CPU      0.13s WALL (      44 calls)
     fftw         :   1114.27s CPU    567.31s WALL ( 1031026 calls)
     interpolate  :      0.23s CPU      0.13s WALL (      22 calls)
 
     Parallel routines
     fft_scatt_xy :     48.87s CPU     26.09s WALL ( 1031366 calls)
     fft_scatt_yz :    856.93s CPU    438.01s WALL ( 1031366 calls)
 
     PWSCF        :      1h 1m CPU  31m32.57s WALL

 
   This run was terminated on:   5:11:58   8Sep2021            

=------------------------------------------------------------------------------=
   JOB DONE.
=------------------------------------------------------------------------------=
