
     Program PWSCF v.6.6 starts on  8Sep2021 at  2:38:47 

     This program is part of the open-source Quantum ESPRESSO suite
     for quantum simulation of materials; please cite
         "P. Giannozzi et al., J. Phys.:Condens. Matter 21 395502 (2009);
         "P. Giannozzi et al., J. Phys.:Condens. Matter 29 465901 (2017);
          URL http://www.quantum-espresso.org", 
     in publications or presentations arising from this work. More details at
     http://www.quantum-espresso.org/quote

     Parallel version (MPI & OpenMP), running on     384 processor cores
     Number of MPI processes:                48
     Threads/MPI process:                     8

     MPI processes distributed on     8 nodes
     R & G space division:  proc/nbgrp/npool/nimage =      48
     Fft bands division:     nmany     =       1
     Reading input from ../inputs/input_ausurf_72

     Current dimensions of program PWSCF are:
     Max number of different atomic species (ntypx) = 10
     Max number of k-points (npk) =  40000
     Max angular momentum in pseudopotentials (lmaxx) =  3

     Subspace diagonalization in iterative solution of the eigenvalue problem:
     one sub-group per band group will be used
     ELPA distributed-memory algorithm (size of sub-group:  6*  6 procs)

     Found symmetry operation: I + ( -0.5000  0.0000  0.0000)
     This is a supercell, fractional translations are disabled
 
     Parallelization info
     --------------------
     sticks:   dense  smooth     PW     G-vecs:    dense   smooth      PW
     Min         125      56     15                29681     9158    1305
     Max         126      57     16                29701     9189    1324
     Sum        6001    2733    755              1425285   440649   63085
 

     Title: 
      Ausurf                                                                    


     bravais-lattice index     =            8
     lattice parameter (alat)  =      11.1494  a.u.
     unit-cell volume          =   12888.9871 (a.u.)^3
     number of atoms/cell      =           72
     number of atomic types    =            1
     number of electrons       =       792.00
     number of Kohn-Sham states=          475
     kinetic-energy cutoff     =      40.0000  Ry
     charge density cutoff     =     350.0000  Ry
     convergence threshold     =      1.0E-06
     mixing beta               =       0.7000
     number of iterations used =            8  TF        mixing
     Exchange-correlation=  SLA  PW   PBE  PBE
                           (   1   4   3   4   0   0   0)

     celldm(1)=  11.149384  celldm(2)=   1.732051  celldm(3)=   5.369150
     celldm(4)=   0.000000  celldm(5)=   0.000000  celldm(6)=   0.000000

     crystal axes: (cart. coord. in units of alat)
               a(1) = (   1.000000   0.000000   0.000000 )  
               a(2) = (   0.000000   1.732051   0.000000 )  
               a(3) = (   0.000000   0.000000   5.369150 )  

     reciprocal axes: (cart. coord. in units 2 pi/alat)
               b(1) = (  1.000000  0.000000  0.000000 )  
               b(2) = (  0.000000  0.577350  0.000000 )  
               b(3) = (  0.000000  0.000000  0.186249 )  


     PseudoPot. # 1 for Au read from file:
     /marconi/home/userexternal/czeni000/dft_src/pseudo/Au.pbe-nd-van.UPF
     MD5 check sum: deb5c07af10777505a79e28f5b4b4115
     Pseudo is Ultrasoft + core correction, Zval = 11.0
     Generated by new atomic code, or converted to UPF format
     Using radial grid of  985 points,  3 beta functions with: 
                l(1) =   1
                l(2) =   2
                l(3) =   2
     Q(r) pseudized with  8 coefficients,  rinner =    1.100   1.100   1.100
                                                       1.100   1.100

     atomic species   valence    mass     pseudopotential
        Au            11.00   196.96000     Au( 1.00)

      2 Sym. Ops. (no inversion) found



   Cartesian axes

     site n.     atom                  positions (alat units)
         1           Au  tau(   1) = (   0.0000000   0.0000000   0.0000000  )
         2           Au  tau(   2) = (   0.5000000   0.0000000   0.0000000  )
         3           Au  tau(   3) = (   0.0000000   0.8660254   0.0000000  )
         4           Au  tau(   4) = (   0.5000000   0.8660254   0.0000000  )
         5           Au  tau(   5) = (   0.2500000   0.1443376   0.4082483  )
         6           Au  tau(   6) = (   0.7500000   0.1443376   0.4082483  )
         7           Au  tau(   7) = (   0.2500000   1.0103631   0.4082483  )
         8           Au  tau(   8) = (   0.7500000   1.0103631   0.4082483  )
         9           Au  tau(   9) = (   0.5000000   0.5773503   0.4082483  )
        10           Au  tau(  10) = (   0.5000000   1.4433756   0.4082483  )
        11           Au  tau(  11) = (   1.0000000   0.5773503   0.4082483  )
        12           Au  tau(  12) = (   1.0000000   1.4433756   0.4082483  )
        13           Au  tau(  13) = (   0.5000000   0.2886751   0.8164966  )
        14           Au  tau(  14) = (   1.0000000   0.2886751   0.8164966  )
        15           Au  tau(  15) = (   0.2500000   0.7216878   0.8164966  )
        16           Au  tau(  16) = (   0.7500000   0.7216878   0.8164966  )
        17           Au  tau(  17) = (   0.5000000   1.1547005   0.8164966  )
        18           Au  tau(  18) = (   1.0000000   1.1547005   0.8164966  )
        19           Au  tau(  19) = (   0.2500000   1.5877132   0.8164966  )
        20           Au  tau(  20) = (   0.7500000   1.5877132   0.8164966  )
        21           Au  tau(  21) = (   0.0000000   0.0000000   1.2247449  )
        22           Au  tau(  22) = (   0.5000000   0.0000000   1.2247449  )
        23           Au  tau(  23) = (   0.2500000   0.4330127   1.2247449  )
        24           Au  tau(  24) = (   0.5000000   0.8660254   1.2247449  )
        25           Au  tau(  25) = (   0.2500000   1.2990381   1.2247449  )
        26           Au  tau(  26) = (   0.7500000   0.4330127   1.2247449  )
        27           Au  tau(  27) = (   0.7500000   1.2990381   1.2247449  )
        28           Au  tau(  28) = (   0.0000000   0.8660254   1.2247449  )
        29           Au  tau(  29) = (   0.2500000   1.0103631   1.6329932  )
        30           Au  tau(  30) = (   1.0000000   0.5773503   1.6329932  )
        31           Au  tau(  31) = (   0.2500000   0.1443376   1.6329932  )
        32           Au  tau(  32) = (   0.7500000   0.1443376   1.6329932  )
        33           Au  tau(  33) = (   0.7500000   1.0103631   1.6329932  )
        34           Au  tau(  34) = (   0.5000000   0.5773503   1.6329932  )
        35           Au  tau(  35) = (   0.5000000   1.4433756   1.6329932  )
        36           Au  tau(  36) = (   1.0000000   1.4433756   1.6329932  )
        37           Au  tau(  37) = (   0.5000000   0.2886751   2.0412415  )
        38           Au  tau(  38) = (   1.0000000   0.2886751   2.0412415  )
        39           Au  tau(  39) = (   0.2500000   0.7216878   2.0412415  )
        40           Au  tau(  40) = (   0.7500000   0.7216878   2.0412415  )
        41           Au  tau(  41) = (   0.7500000   1.5877132   2.0412415  )
        42           Au  tau(  42) = (   0.5000000   1.1547005   2.0412415  )
        43           Au  tau(  43) = (   1.0000000   1.1547005   2.0412415  )
        44           Au  tau(  44) = (   0.2500000   1.5877132   2.0412415  )
        45           Au  tau(  45) = (   0.0000000   0.0000000   2.4494897  )
        46           Au  tau(  46) = (   0.0000000   0.8660254   2.4494897  )
        47           Au  tau(  47) = (   0.5000000   0.0000000   2.4494897  )
        48           Au  tau(  48) = (   0.5000000   0.8660254   2.4494897  )
        49           Au  tau(  49) = (   0.2500000   0.4330127   2.4494897  )
        50           Au  tau(  50) = (   0.7500000   0.4330127   2.4494897  )
        51           Au  tau(  51) = (   0.2500000   1.2990381   2.4494897  )
        52           Au  tau(  52) = (   0.7500000   1.2990381   2.4494897  )
        53           Au  tau(  53) = (   1.0000000   1.4433756   2.8577380  )
        54           Au  tau(  54) = (   0.2500000   0.1443376   2.8577380  )
        55           Au  tau(  55) = (   0.2500000   1.0103631   2.8577380  )
        56           Au  tau(  56) = (   0.7500000   0.1443376   2.8577380  )
        57           Au  tau(  57) = (   0.7500000   1.0103631   2.8577380  )
        58           Au  tau(  58) = (   0.5000000   0.5773503   2.8577380  )
        59           Au  tau(  59) = (   0.5000000   1.4433756   2.8577380  )
        60           Au  tau(  60) = (   1.0000000   0.5773503   2.8577380  )
        61           Au  tau(  61) = (   0.7500000   1.5877132   3.2659863  )
        62           Au  tau(  62) = (   0.5000000   0.2886751   3.2659863  )
        63           Au  tau(  63) = (   0.5000000   1.1547005   3.2659863  )
        64           Au  tau(  64) = (   1.0000000   0.2886751   3.2659863  )
        65           Au  tau(  65) = (   1.0000000   1.1547005   3.2659863  )
        66           Au  tau(  66) = (   0.2500000   0.7216878   3.2659863  )
        67           Au  tau(  67) = (   0.2500000   1.5877132   3.2659863  )
        68           Au  tau(  68) = (   0.7500000   0.7216878   3.2659863  )
        69           Au  tau(  69) = (   0.2500000   0.4330127   3.6742346  )
        70           Au  tau(  70) = (   0.2500000   1.2990381   3.6742346  )
        71           Au  tau(  71) = (   0.7500000   0.4330127   3.6742346  )
        72           Au  tau(  72) = (   0.7500000   1.2990381   3.6742346  )

     number of k points=    18  Marzari-Vanderbilt smearing, width (Ry)=  0.0500
                       cart. coord. in units 2pi/alat
        k(    1) = (   0.0416667   0.0481125   0.0000000), wk =   0.1111111
        k(    2) = (   0.0416667   0.1443376   0.0000000), wk =   0.1111111
        k(    3) = (   0.0416667   0.2405626   0.0000000), wk =   0.1111111
        k(    4) = (   0.1250000   0.0481125   0.0000000), wk =   0.1111111
        k(    5) = (   0.1250000   0.1443376   0.0000000), wk =   0.1111111
        k(    6) = (   0.1250000   0.2405626   0.0000000), wk =   0.1111111
        k(    7) = (   0.2083333   0.0481125   0.0000000), wk =   0.1111111
        k(    8) = (   0.2083333   0.1443376   0.0000000), wk =   0.1111111
        k(    9) = (   0.2083333   0.2405626   0.0000000), wk =   0.1111111
        k(   10) = (   0.2916667   0.0481125   0.0000000), wk =   0.1111111
        k(   11) = (   0.2916667   0.1443376   0.0000000), wk =   0.1111111
        k(   12) = (   0.2916667   0.2405626   0.0000000), wk =   0.1111111
        k(   13) = (   0.3750000   0.0481125   0.0000000), wk =   0.1111111
        k(   14) = (   0.3750000   0.1443376   0.0000000), wk =   0.1111111
        k(   15) = (   0.3750000   0.2405626   0.0000000), wk =   0.1111111
        k(   16) = (   0.4583333   0.0481125   0.0000000), wk =   0.1111111
        k(   17) = (   0.4583333   0.1443376   0.0000000), wk =   0.1111111
        k(   18) = (   0.4583333   0.2405626   0.0000000), wk =   0.1111111

     Dense  grid:  1425285 G-vectors     FFT dimensions: (  72, 120, 360)

     Smooth grid:   440649 G-vectors     FFT dimensions: (  45,  80, 243)

     Estimated max dynamical RAM per process >     337.06 MB

     Estimated total dynamical RAM >      15.80 GB

     Initial potential from superposition of free atoms

     starting charge  791.16394, renormalised to  792.00000

     negative rho (up, down):  1.916E+00 0.000E+00
     Starting wfcs are  648 randomized atomic wfcs

     total cpu time spent up to now is       13.8 secs

     Self-consistent Calculation

     iteration #  1     ecut=    40.00 Ry     beta= 0.70
     Davidson diagonalization with overlap
     ethr =  1.00E-02,  avg # of iterations =  2.5

     Threshold (ethr) on eigenvalues was too large:
     Diagonalizing with lowered threshold

     Davidson diagonalization with overlap
     ethr =  3.34E-04,  avg # of iterations =  2.8

     negative rho (up, down):  1.820E+00 0.000E+00

     total cpu time spent up to now is       84.6 secs

     total energy              =   -7346.27246755 Ry
     estimated scf accuracy    <       3.14782683 Ry

     iteration #  2     ecut=    40.00 Ry     beta= 0.70
     Davidson diagonalization with overlap
     ethr =  3.97E-04,  avg # of iterations =  1.1

     negative rho (up, down):  1.926E+00 0.000E+00

     total cpu time spent up to now is      108.7 secs

     total energy              =   -7346.41232209 Ry
     estimated scf accuracy    <       1.40730083 Ry

     iteration #  3     ecut=    40.00 Ry     beta= 0.70
     Davidson diagonalization with overlap
     ethr =  1.78E-04,  avg # of iterations =  2.7

     negative rho (up, down):  2.029E+00 0.000E+00

     total cpu time spent up to now is      136.6 secs

     total energy              =   -7346.40389542 Ry
     estimated scf accuracy    <       0.82285626 Ry

     iteration #  4     ecut=    40.00 Ry     beta= 0.70
     Davidson diagonalization with overlap
     ethr =  1.04E-04,  avg # of iterations =  6.7

     negative rho (up, down):  2.026E+00 0.000E+00

     total cpu time spent up to now is      170.5 secs

     total energy              =   -7346.39073785 Ry
     estimated scf accuracy    <       0.40468156 Ry

     iteration #  5     ecut=    40.00 Ry     beta= 0.70
     Davidson diagonalization with overlap
     c_bands:  1 eigenvalues not converged
     ethr =  5.11E-05,  avg # of iterations = 11.4

     negative rho (up, down):  1.975E+00 0.000E+00

     total cpu time spent up to now is      212.8 secs

     total energy              =   -7346.38494315 Ry
     estimated scf accuracy    <       0.24793021 Ry

     iteration #  6     ecut=    40.00 Ry     beta= 0.70
     Davidson diagonalization with overlap
     c_bands:  1 eigenvalues not converged
     ethr =  3.13E-05,  avg # of iterations =  8.3

     negative rho (up, down):  1.978E+00 0.000E+00

     total cpu time spent up to now is      249.6 secs

     total energy              =   -7346.37788363 Ry
     estimated scf accuracy    <       0.23637389 Ry

     iteration #  7     ecut=    40.00 Ry     beta= 0.70
     Davidson diagonalization with overlap
     ethr =  2.98E-05,  avg # of iterations =  4.5

     negative rho (up, down):  1.986E+00 0.000E+00

     total cpu time spent up to now is      280.2 secs

     total energy              =   -7346.36984475 Ry
     estimated scf accuracy    <       0.24114691 Ry

     iteration #  8     ecut=    40.00 Ry     beta= 0.70
     Davidson diagonalization with overlap
     ethr =  2.98E-05,  avg # of iterations =  3.2

     negative rho (up, down):  2.024E+00 0.000E+00

     total cpu time spent up to now is      308.8 secs

     total energy              =   -7346.35190082 Ry
     estimated scf accuracy    <       0.16709038 Ry

     iteration #  9     ecut=    40.00 Ry     beta= 0.70
     Davidson diagonalization with overlap
     ethr =  2.11E-05,  avg # of iterations = 12.0

     negative rho (up, down):  2.013E+00 0.000E+00

     total cpu time spent up to now is      363.6 secs

     total energy              =   -7346.37454835 Ry
     estimated scf accuracy    <       0.24933557 Ry

     iteration # 10     ecut=    40.00 Ry     beta= 0.70
     Davidson diagonalization with overlap
     ethr =  2.11E-05,  avg # of iterations =  1.0

     negative rho (up, down):  2.031E+00 0.000E+00

     total cpu time spent up to now is      388.7 secs

     total energy              =   -7346.36191938 Ry
     estimated scf accuracy    <       0.15952252 Ry

     iteration # 11     ecut=    40.00 Ry     beta= 0.70
     Davidson diagonalization with overlap
     ethr =  2.01E-05,  avg # of iterations =  1.0

     negative rho (up, down):  2.040E+00 0.000E+00

     total cpu time spent up to now is      412.8 secs

     total energy              =   -7346.37431418 Ry
     estimated scf accuracy    <       0.07060737 Ry

     iteration # 12     ecut=    40.00 Ry     beta= 0.70
     Davidson diagonalization with overlap
     ethr =  8.92E-06,  avg # of iterations =  2.0

     negative rho (up, down):  2.072E+00 0.000E+00

     total cpu time spent up to now is      440.8 secs

     total energy              =   -7346.35272142 Ry
     estimated scf accuracy    <       0.20003430 Ry

     iteration # 13     ecut=    40.00 Ry     beta= 0.70
     Davidson diagonalization with overlap
     c_bands:  1 eigenvalues not converged
     ethr =  8.92E-06,  avg # of iterations = 10.6

     negative rho (up, down):  2.026E+00 0.000E+00

     total cpu time spent up to now is      483.7 secs

     total energy              =   -7346.35170603 Ry
     estimated scf accuracy    <       0.02118254 Ry

     iteration # 14     ecut=    40.00 Ry     beta= 0.70
     Davidson diagonalization with overlap
     ethr =  2.67E-06,  avg # of iterations = 11.4

     negative rho (up, down):  2.012E+00 0.000E+00

     total cpu time spent up to now is      550.3 secs

     total energy              =   -7346.35933812 Ry
     estimated scf accuracy    <       0.05145383 Ry

     iteration # 15     ecut=    40.00 Ry     beta= 0.70
     Davidson diagonalization with overlap
     ethr =  2.67E-06,  avg # of iterations =  2.1

     negative rho (up, down):  1.994E+00 0.000E+00

     total cpu time spent up to now is      578.5 secs

     total energy              =   -7346.35458997 Ry
     estimated scf accuracy    <       0.02771086 Ry

     iteration # 16     ecut=    40.00 Ry     beta= 0.70
     Davidson diagonalization with overlap
     ethr =  2.67E-06,  avg # of iterations =  7.1

     negative rho (up, down):  1.973E+00 0.000E+00

     total cpu time spent up to now is      619.0 secs

     total energy              =   -7346.35666786 Ry
     estimated scf accuracy    <       0.00044383 Ry

     iteration # 17     ecut=    40.00 Ry     beta= 0.70
     Davidson diagonalization with overlap
     c_bands:  1 eigenvalues not converged
     ethr =  5.60E-08,  avg # of iterations =  9.3

     negative rho (up, down):  1.960E+00 0.000E+00

     total cpu time spent up to now is      754.5 secs

     total energy              =   -7346.35653020 Ry
     estimated scf accuracy    <       0.00059660 Ry

     iteration # 18     ecut=    40.00 Ry     beta= 0.70
     Davidson diagonalization with overlap
     c_bands:  1 eigenvalues not converged
     c_bands:  1 eigenvalues not converged
     ethr =  5.60E-08,  avg # of iterations = 12.2

     negative rho (up, down):  1.958E+00 0.000E+00

     total cpu time spent up to now is      808.1 secs

     total energy              =   -7346.35663175 Ry
     estimated scf accuracy    <       0.00006880 Ry

     iteration # 19     ecut=    40.00 Ry     beta= 0.70
     Davidson diagonalization with overlap
     c_bands:  1 eigenvalues not converged
     ethr =  8.69E-09,  avg # of iterations =  7.7

     negative rho (up, down):  1.957E+00 0.000E+00

     total cpu time spent up to now is      850.1 secs

     total energy              =   -7346.35668288 Ry
     estimated scf accuracy    <       0.00004853 Ry

     iteration # 20     ecut=    40.00 Ry     beta= 0.70
     Davidson diagonalization with overlap
     ethr =  6.13E-09,  avg # of iterations =  6.8

     negative rho (up, down):  1.957E+00 0.000E+00

     total cpu time spent up to now is      889.4 secs

     total energy              =   -7346.35669449 Ry
     estimated scf accuracy    <       0.00003063 Ry

     iteration # 21     ecut=    40.00 Ry     beta= 0.70
     Davidson diagonalization with overlap
     ethr =  3.87E-09,  avg # of iterations =  2.4

     negative rho (up, down):  1.957E+00 0.000E+00

     total cpu time spent up to now is      918.4 secs

     End of self-consistent calculation

          k = 0.0417 0.0481 0.0000 ( 55126 PWs)   bands (ev):

    -0.8129  -0.4712   0.0255   0.5492   0.6015   0.8363   0.9651   1.1251
     1.2160   1.2464   1.4435   1.5574   1.5650   1.5684   1.6036   1.6144
     1.6195   1.7229   1.8477   1.8507   1.8522   1.8547   1.8642   1.8683
     1.9218   2.0303   2.0337   2.0407   2.1221   2.1228   2.1255   2.1516
     2.1521   2.1636   2.1715   2.2258   2.2293   2.2383   2.2442   2.2807
     2.3148   2.3181   2.3230   2.3338   2.3503   2.3812   2.3917   2.4116
     2.4166   2.4302   2.4408   2.4759   2.4837   2.4887   2.4953   2.5152
     2.5246   2.5464   2.5802   2.6022   2.6234   2.6416   2.6673   2.6688
     2.6847   2.7238   2.7341   2.7591   2.7690   2.7907   2.8248   2.8574
     2.9327   2.9404   2.9613   2.9795   3.0562   3.0695   3.0815   3.0835
     3.1172   3.1480   3.1696   3.1761   3.1947   3.2140   3.2337   3.2612
     3.2909   3.3218   3.3244   3.3319   3.3437   3.3608   3.3695   3.3758
     3.4219   3.4496   3.4594   3.4758   3.4825   3.5091   3.5120   3.5481
     3.5628   3.5670   3.5869   3.6019   3.6076   3.6212   3.6469   3.6482
     3.6595   3.6847   3.6908   3.7320   3.7327   3.7657   3.7744   3.7789
     3.7921   3.7940   3.8015   3.8282   3.8525   3.8650   3.8698   3.8698
     3.8936   3.8953   3.9021   3.9073   3.9194   3.9261   3.9345   3.9389
     3.9496   3.9551   3.9553   3.9610   3.9636   3.9801   3.9878   3.9940
     4.0119   4.0262   4.0425   4.0732   4.0802   4.0868   4.0953   4.0993
     4.1078   4.1099   4.1178   4.1338   4.1399   4.1646   4.1655   4.1657
     4.1744   4.1755   4.1832   4.1890   4.1906   4.2009   4.2067   4.2186
     4.2378   4.2549   4.3003   4.3058   4.3144   4.3185   4.3219   4.3329
     4.3480   4.3578   4.3673   4.3704   4.3808   4.3828   4.3944   4.4297
     4.4314   4.4335   4.4525   4.4660   4.4685   4.4917   4.5097   4.5127
     4.5189   4.5249   4.5281   4.5335   4.5363   4.5973   4.6326   4.6592
     4.6927   4.6992   4.7082   4.7184   4.7251   4.7466   4.7515   4.7643
     4.7727   4.8138   4.8721   4.8809   4.8820   4.8919   4.8962   4.8990
     4.9029   4.9299   4.9595   4.9748   4.9810   4.9914   4.9990   5.0116
     5.0294   5.0305   5.0353   5.0603   5.0821   5.1088   5.1115   5.1243
     5.1280   5.1512   5.1540   5.1908   5.2013   5.2160   5.2236   5.2291
     5.2317   5.2363   5.2602   5.2615   5.2657   5.2704   5.2755   5.2829
     5.2962   5.3188   5.3270   5.3321   5.3344   5.3403   5.3473   5.3510
     5.3545   5.3751   5.4062   5.4199   5.4279   5.4312   5.4608   5.4790
     5.4888   5.4962   5.5162   5.5163   5.5399   5.5452   5.5509   5.5548
     5.5724   5.6062   5.6110   5.6409   5.6477   5.6786   5.6971   5.6998
     5.7302   5.7482   5.7565   5.7621   5.7906   5.8117   5.8304   5.8486
     5.8597   5.8653   5.8928   5.8970   5.9059   5.9250   5.9599   5.9770
     5.9779   5.9953   5.9961   6.0131   6.0736   6.0940   6.0976   6.1165
     6.1178   6.1334   6.1428   6.1658   6.1747   6.1790   6.1961   6.2013
     6.2061   6.2193   6.2313   6.2339   6.2346   6.2527   6.2597   6.2669
     6.2937   6.3037   6.3139   6.3278   6.3361   6.3461   6.3461   6.3477
     6.3608   6.3716   6.3762   6.3777   6.3788   6.3905   6.3922   6.3924
     6.3956   6.3980   6.3989   6.4286   6.4318   6.4325   6.4346   6.4386
     6.4515   6.4561   6.4650   6.4676   6.4863   6.5116   6.5126   6.5340
     6.5459   6.5485   6.5645   6.5714   6.5745   6.5866   6.5872   6.5955
     6.5989   6.6009   6.6084   6.6330   6.6380   6.6526   6.6705   6.6968
     6.6974   6.7186   6.7243   6.7563   6.7603   6.8334   6.8526   6.8762
     6.9120   6.9125   6.9557   7.0798   7.5265   7.6699   7.7396   7.7970
     7.7987   7.8521   8.0376   8.0476   8.1461   8.2409   8.2771   8.3596
     8.4533   8.4654   8.5507   8.5855   8.7138   8.7751   8.7832   8.7920
     8.9272   8.9468   8.9508   9.0402   9.0557   9.1042   9.1965   9.2727
     9.2777   9.2965   9.3531   9.4610   9.5885   9.6441   9.6612   9.7175
     9.7598   9.8306   9.9042   9.9108   9.9361   9.9943   9.9979  10.0744
    10.5293  10.6510  10.8568  10.8655  10.9820  11.0636  11.0765  11.1450
    11.2293  11.2589  11.2642  11.3281  11.3375  11.3824  11.4667  11.7284
    11.8210  11.8825  11.9531  12.0478  12.0584  12.0968  12.3380  12.3798
    12.4489  12.5508  12.6089  12.6161  12.6195  12.6452  12.7843  12.8467
    12.8748  13.2439  13.2844  13.3197  13.3837  13.4641  13.4914  13.6762
    13.6814  13.7255  13.8092  13.8229  13.8832  13.9534  13.9593  13.9909
    13.9954  13.9984  14.0079

          k = 0.0417 0.1443 0.0000 ( 55027 PWs)   bands (ev):

    -0.7120  -0.3720   0.1227   0.1367   0.4501   0.6974   0.9046   1.2202
     1.3073   1.4288   1.5339   1.5450   1.6053   1.6498   1.6505   1.6610
     1.6966   1.7919   1.8613   1.8866   1.8973   1.9035   1.9193   1.9251
     1.9444   2.0366   2.0574   2.0854   2.0993   2.1140   2.1520   2.1679
     2.1709   2.1738   2.1759   2.1997   2.2057   2.2133   2.2505   2.2573
     2.2770   2.2863   2.2877   2.2884   2.3123   2.3237   2.3385   2.3594
     2.3612   2.3626   2.4145   2.4228   2.4686   2.4860   2.4947   2.4996
     2.5088   2.5181   2.5195   2.5548   2.5682   2.5879   2.6430   2.6489
     2.6926   2.6954   2.7019   2.7022   2.7050   2.7114   2.7232   2.7433
     2.8036   2.8196   2.8705   2.8925   2.9247   3.0052   3.0105   3.0411
     3.0827   3.0889   3.1044   3.1303   3.1417   3.1627   3.2320   3.2376
     3.2486   3.2680   3.2914   3.3398   3.3500   3.3539   3.3744   3.4096
     3.4395   3.4520   3.4837   3.5019   3.5156   3.5242   3.5494   3.5560
     3.5843   3.5887   3.6151   3.6160   3.6200   3.6486   3.6779   3.6854
     3.6859   3.7021   3.7081   3.7496   3.7649   3.7669   3.7707   3.7864
     3.7915   3.8466   3.8507   3.8648   3.8922   3.9038   3.9095   3.9112
     3.9126   3.9279   3.9387   3.9444   3.9451   3.9480   3.9655   3.9764
     3.9776   3.9822   4.0007   4.0220   4.0220   4.0251   4.0561   4.0628
     4.0669   4.0735   4.0746   4.0850   4.1084   4.1158   4.1223   4.1397
     4.1463   4.1479   4.1738   4.1779   4.1812   4.1874   4.1914   4.1946
     4.1974   4.2188   4.2220   4.2238   4.2261   4.2318   4.2687   4.2716
     4.2825   4.3034   4.3078   4.3229   4.3271   4.3446   4.3491   4.3506
     4.3604   4.3784   4.3986   4.4045   4.4188   4.4232   4.4239   4.4320
     4.4575   4.4610   4.4623   4.4932   4.4935   4.5053   4.5336   4.5395
     4.5488   4.5569   4.5776   4.5801   4.5837   4.5906   4.5984   4.6125
     4.6305   4.6647   4.6703   4.6892   4.7064   4.7169   4.7477   4.7951
     4.8046   4.8209   4.8262   4.8333   4.8597   4.8661   4.8960   4.9184
     4.9264   4.9464   4.9466   4.9663   4.9750   4.9818   4.9849   4.9992
     5.0120   5.0272   5.0476   5.0519   5.0839   5.0934   5.0983   5.1168
     5.1295   5.1355   5.1718   5.1821   5.2011   5.2201   5.2386   5.2516
     5.2545   5.2574   5.2795   5.3212   5.3460   5.3467   5.3470   5.3597
     5.3709   5.3782   5.3927   5.3967   5.4097   5.4288   5.4371   5.4490
     5.4540   5.4707   5.4805   5.4941   5.4978   5.5075   5.5094   5.5263
     5.5378   5.5499   5.5536   5.5748   5.5792   5.5815   5.5885   5.6043
     5.6072   5.6128   5.6432   5.6510   5.6677   5.6711   5.7143   5.7284
     5.7295   5.7675   5.7740   5.7898   5.7913   5.7997   5.8344   5.8584
     5.8639   5.8779   5.8975   5.9034   5.9070   5.9138   5.9433   5.9477
     5.9721   5.9821   5.9839   6.0198   6.0235   6.0297   6.0377   6.0593
     6.1086   6.1183   6.1240   6.1251   6.1268   6.1464   6.1501   6.1563
     6.1588   6.1740   6.1936   6.2104   6.2145   6.2231   6.2278   6.2342
     6.2360   6.2504   6.2539   6.2715   6.2756   6.2758   6.2938   6.3001
     6.3010   6.3144   6.3144   6.3208   6.3224   6.3272   6.3341   6.3572
     6.3622   6.3664   6.3759   6.3838   6.3894   6.3907   6.3930   6.4002
     6.4264   6.4354   6.4492   6.4540   6.4583   6.4641   6.4652   6.4808
     6.4871   6.5048   6.5417   6.5431   6.5489   6.5641   6.5643   6.5678
     6.5861   6.5877   6.5967   6.5993   6.6018   6.6022   6.6266   6.6271
     6.7171   6.7179   6.7248   6.7442   6.7963   6.8300   6.8743   6.8771
     6.9103   6.9104   6.9660   7.1489   7.4629   7.4846   7.5677   7.6163
     7.6595   7.7837   7.7876   7.7931   7.9867   8.0369   8.0831   8.2064
     8.2357   8.2943   8.2999   8.4393   8.4792   8.5082   8.6560   8.6806
     8.7582   8.7940   8.9603   9.0337   9.0368   9.1522   9.1736   9.2183
     9.2661   9.4274   9.4830   9.7075   9.7080   9.7105   9.7677   9.7773
     9.9047   9.9557  10.0862  10.2303  10.3584  10.5417  10.6336  10.6516
    10.6522  10.6634  10.9774  11.0146  11.0273  11.1341  11.2090  11.2603
    11.3007  11.3339  11.3796  11.4415  11.5257  11.6091  11.6929  11.7722
    11.8430  11.8433  12.0152  12.0883  12.0921  12.0991  12.2302  12.2953
    12.4258  12.4476  12.5341  12.5529  12.5786  12.6667  12.7282  12.8282
    12.9230  12.9505  13.0059  13.1168  13.2777  13.3255  13.4003  13.4307
    13.4392  13.5549  13.6183  13.6329  13.6479  13.7157  13.7996  13.8986
    14.0117  14.0509  14.1013

          k = 0.0417 0.2406 0.0000 ( 55030 PWs)   bands (ev):

    -0.5138  -0.2261  -0.1778   0.1021   0.3117   0.5802   0.8821   1.1389
     1.4019   1.5058   1.5835   1.6432   1.7091   1.7517   1.7548   1.8040
     1.8168   1.8301   1.8557   1.9104   1.9393   1.9477   1.9731   1.9999
     2.0096   2.0105   2.0134   2.0285   2.0428   2.0658   2.0743   2.0846
     2.1273   2.1442   2.1467   2.1617   2.1689   2.1963   2.2341   2.2418
     2.2478   2.2735   2.2887   2.3028   2.3081   2.3383   2.3439   2.3702
     2.3808   2.3834   2.4081   2.4366   2.4397   2.4495   2.4516   2.4563
     2.4744   2.4767   2.5358   2.5380   2.5535   2.5682   2.5905   2.5945
     2.5987   2.6140   2.6170   2.6591   2.6638   2.6731   2.6933   2.7013
     2.7718   2.7725   2.7855   2.8062   2.8068   2.8491   2.8755   2.8759
     2.9229   2.9565   3.1222   3.1331   3.1401   3.1631   3.1811   3.1992
     3.2742   3.2791   3.3125   3.3274   3.3540   3.3779   3.3791   3.4050
     3.4214   3.5151   3.5320   3.5437   3.5538   3.5763   3.5856   3.5909
     3.5935   3.6247   3.6264   3.6298   3.6448   3.6924   3.6979   3.7045
     3.7201   3.7350   3.7437   3.7593   3.7595   3.7715   3.7852   3.7877
     3.8267   3.8467   3.8555   3.8571   3.8677   3.8683   3.9196   3.9235
     3.9409   3.9488   3.9530   3.9710   3.9758   3.9800   4.0154   4.0164
     4.0194   4.0418   4.0534   4.0579   4.0696   4.0710   4.0765   4.0790
     4.1023   4.1097   4.1197   4.1318   4.1394   4.1412   4.1500   4.1549
     4.1625   4.1694   4.1832   4.1871   4.1936   4.2004   4.2022   4.2051
     4.2182   4.2369   4.2543   4.2560   4.2740   4.2746   4.2887   4.2968
     4.3005   4.3062   4.3147   4.3225   4.3395   4.3505   4.3535   4.3689
     4.3691   4.3709   4.3815   4.3938   4.3996   4.4255   4.4667   4.4712
     4.4782   4.4854   4.4906   4.4956   4.4991   4.5050   4.5343   4.5355
     4.5360   4.5559   4.5744   4.5788   4.5862   4.6620   4.6804   4.6918
     4.7144   4.7188   4.7256   4.7307   4.7852   4.8013   4.8102   4.8149
     4.8176   4.8240   4.8260   4.8496   4.8593   4.8716   4.9011   4.9066
     4.9253   4.9585   4.9712   4.9820   5.0021   5.0065   5.0165   5.0248
     5.0342   5.0372   5.0841   5.0944   5.1093   5.1223   5.1293   5.1733
     5.1804   5.1999   5.2249   5.2311   5.2389   5.2409   5.2502   5.2589
     5.2741   5.2767   5.2858   5.2971   5.3264   5.3369   5.3442   5.3642
     5.3672   5.3731   5.3763   5.3767   5.3876   5.4028   5.4034   5.4089
     5.4729   5.4869   5.5333   5.5370   5.5423   5.5469   5.5777   5.5821
     5.5990   5.6075   5.6201   5.6319   5.6405   5.6680   5.6743   5.6966
     5.7079   5.7307   5.7310   5.7333   5.7483   5.7667   5.7697   5.7779
     5.8000   5.8289   5.8341   5.8373   5.8437   5.8538   5.8541   5.8571
     5.8574   5.9006   5.9034   5.9107   5.9489   5.9495   5.9587   5.9688
     5.9908   6.0094   6.0131   6.0142   6.0278   6.0359   6.0438   6.0478
     6.0534   6.0573   6.0718   6.0735   6.0765   6.0774   6.0906   6.0911
     6.1010   6.1245   6.1299   6.1448   6.1528   6.1687   6.1762   6.1841
     6.1928   6.1993   6.2058   6.2093   6.2250   6.2258   6.2349   6.2479
     6.2572   6.2636   6.2647   6.2657   6.2672   6.2730   6.2790   6.2827
     6.2911   6.2930   6.3070   6.3171   6.3337   6.3362   6.3496   6.3588
     6.3648   6.3701   6.3773   6.3777   6.4185   6.4243   6.4251   6.4423
     6.4453   6.4496   6.4742   6.5160   6.5466   6.5472   6.5483   6.5507
     6.5841   6.5848   6.5889   6.5915   6.5990   6.5995   6.6019   6.6041
     6.6625   6.7164   6.7244   6.7279   6.7392   6.8158   6.8257   6.8948
     6.8959   6.8973   6.9051   6.9059   6.9117   7.0666   7.4070   7.4966
     7.6143   7.6393   7.7172   7.8003   7.8510   7.8662   8.0289   8.0663
     8.1972   8.2647   8.3294   8.3615   8.4199   8.4214   8.5164   8.5961
     8.6836   8.8061   8.8540   9.0091   9.0219   9.1285   9.2262   9.2504
     9.3118   9.3896   9.7010   9.7303   9.7557   9.7803   9.7876   9.8687
    10.0743  10.2500  10.2529  10.4661  10.5445  10.5918  10.6434  10.7564
    10.7871  11.0498  11.1348  11.1945  11.2181  11.2268  11.2740  11.3419
    11.3897  11.4437  11.4824  11.6596  11.6620  11.7791  11.8063  11.8563
    11.9858  12.0116  12.1031  12.1128  12.1262  12.2553  12.3037  12.3200
    12.3470  12.4087  12.5246  12.5923  12.6219  12.6533  12.7046  12.7650
    12.8191  12.8497  12.9355  13.0696  13.0962  13.1679  13.2011  13.2840
    13.4465  13.4610  13.4632  13.5267  13.6556  13.6623  13.6885  13.8265
    13.8962  13.9579  14.0994

          k = 0.1250 0.0481 0.0000 ( 55079 PWs)   bands (ev):

    -0.7371  -0.3966   0.0989   0.6179   0.6743   0.9017   1.0349   1.1979
     1.2810   1.3082   1.5129   1.6013   1.6172   1.6297   1.6348   1.6504
     1.6768   1.7829   1.8490   1.8750   1.8937   1.8997   1.9018   1.9259
     1.9817   2.0480   2.0793   2.0925   2.1251   2.1391   2.1540   2.1634
     2.1652   2.2024   2.2212   2.2302   2.2416   2.2445   2.2811   2.2836
     2.2969   2.3111   2.3426   2.3517   2.3563   2.4043   2.4142   2.4362
     2.4404   2.4700   2.4725   2.4803   2.5226   2.5388   2.5418   2.5508
     2.5817   2.5908   2.6333   2.6410   2.6632   2.6765   2.6786   2.6938
     2.7239   2.7517   2.7860   2.7897   2.8261   2.8323   2.8638   2.9155
     2.9237   2.9483   2.9914   3.0344   3.0607   3.0732   3.0745   3.1141
     3.1540   3.1628   3.1773   3.1787   3.1960   3.2221   3.2577   3.2958
     3.2990   3.2994   3.3291   3.3325   3.3383   3.3596   3.3721   3.3882
     3.3902   3.4134   3.4376   3.4377   3.4694   3.4703   3.4855   3.5313
     3.5527   3.5593   3.5648   3.5678   3.6022   3.6090   3.6244   3.6291
     3.6442   3.6738   3.6971   3.7176   3.7216   3.7228   3.7296   3.7351
     3.7745   3.7777   3.8087   3.8156   3.8178   3.8415   3.8590   3.8598
     3.8755   3.8802   3.8837   3.8955   3.8983   3.9143   3.9331   3.9350
     3.9545   3.9558   3.9574   3.9663   3.9725   3.9766   3.9818   3.9839
     3.9898   4.0188   4.0325   4.0583   4.0635   4.0727   4.0746   4.0828
     4.0921   4.0988   4.1018   4.1098   4.1140   4.1380   4.1647   4.1683
     4.1782   4.1814   4.1845   4.1891   4.1915   4.1937   4.2005   4.2079
     4.2223   4.2288   4.2368   4.2463   4.2520   4.2925   4.3041   4.3122
     4.3212   4.3305   4.3596   4.3651   4.3674   4.3687   4.3837   4.3941
     4.4062   4.4134   4.4267   4.4378   4.4438   4.4619   4.4824   4.4978
     4.5011   4.5179   4.5230   4.5424   4.5430   4.5524   4.5696   4.6478
     4.6508   4.6736   4.6754   4.7123   4.7462   4.7704   4.7718   4.8045
     4.8270   4.8437   4.8543   4.8741   4.8807   4.8936   4.9177   4.9190
     4.9329   4.9342   4.9401   4.9458   4.9471   4.9516   4.9815   5.0068
     5.0114   5.0163   5.0433   5.0630   5.0666   5.0929   5.0999   5.1215
     5.1345   5.1392   5.1395   5.1515   5.1547   5.1929   5.2108   5.2260
     5.2271   5.2326   5.2500   5.2582   5.2603   5.2670   5.2864   5.3118
     5.3122   5.3245   5.3272   5.3357   5.3414   5.3536   5.3621   5.3639
     5.3691   5.4010   5.4057   5.4323   5.4522   5.4706   5.4778   5.5009
     5.5062   5.5086   5.5254   5.5504   5.5691   5.5724   5.5732   5.5808
     5.5984   5.5984   5.6382   5.6418   5.6501   5.6608   5.6850   5.6916
     5.7033   5.7297   5.7563   5.7597   5.7779   5.7906   5.7990   5.8004
     5.8397   5.8470   5.8639   5.8695   5.8737   5.8803   5.9236   5.9370
     5.9528   5.9699   6.0302   6.0319   6.0448   6.0553   6.0758   6.0791
     6.0883   6.0962   6.0982   6.1203   6.1314   6.1332   6.1562   6.1652
     6.1823   6.1833   6.2067   6.2207   6.2225   6.2246   6.2348   6.2378
     6.2488   6.2577   6.2689   6.2771   6.2821   6.2868   6.2921   6.2955
     6.3087   6.3122   6.3149   6.3268   6.3367   6.3451   6.3465   6.3498
     6.3561   6.3642   6.3675   6.3732   6.3753   6.3820   6.3937   6.3949
     6.4011   6.4100   6.4198   6.4469   6.4472   6.4790   6.4812   6.4823
     6.4835   6.5077   6.5082   6.5280   6.5341   6.5376   6.5397   6.5450
     6.5459   6.5499   6.5765   6.5944   6.6051   6.6249   6.6538   6.6553
     6.6612   6.6683   6.6785   6.7012   6.7479   6.7853   6.7881   6.8417
     6.8435   6.9536   7.0459   7.1245   7.1993   7.2039   7.3952   7.3982
     7.5525   7.6292   7.7218   7.7927   7.8827   7.9081   8.1020   8.1390
     8.1864   8.1907   8.2657   8.4424   8.5428   8.5573   8.7581   8.8449
     8.8610   8.9424   8.9855   9.0161   9.0977   9.1029   9.1660   9.1958
     9.3704   9.4413   9.4738   9.5982   9.7589   9.8114   9.8566   9.9074
    10.0291  10.0776  10.1009  10.1406  10.1419  10.3275  10.5030  10.5044
    10.7767  10.7969  10.9418  11.0387  11.0894  11.1635  11.2335  11.2416
    11.3476  11.3507  11.3926  11.4102  11.4691  11.5349  11.5748  11.7031
    11.9238  11.9535  11.9608  12.0719  12.0838  12.1052  12.1413  12.1802
    12.4424  12.4881  12.5527  12.6180  12.6999  12.7425  12.8206  12.8406
    12.9775  13.0319  13.2617  13.3348  13.4285  13.5813  13.5985  13.6312
    13.7210  13.7978  13.8117  13.9578  14.0041  14.0467  14.0562  14.0628
    14.1657  14.3116  14.4205

          k = 0.1250 0.1443 0.0000 ( 55061 PWs)   bands (ev):

    -0.6371  -0.2984   0.1948   0.2063   0.5171   0.7686   0.9683   1.2912
     1.3787   1.4917   1.6014   1.6107   1.6117   1.6684   1.7140   1.7257
     1.7567   1.8528   1.8594   1.9156   1.9239   1.9385   1.9573   1.9644
     1.9896   2.0035   2.0802   2.0954   2.1162   2.1473   2.1647   2.1686
     2.1982   2.2066   2.2216   2.2217   2.2394   2.2609   2.2717   2.2762
     2.3135   2.3213   2.3218   2.3235   2.3505   2.3771   2.3859   2.3883
     2.3930   2.3946   2.3984   2.4787   2.4794   2.4842   2.5097   2.5328
     2.5415   2.5527   2.5644   2.5866   2.6066   2.6156   2.6238   2.6829
     2.7090   2.7139   2.7270   2.7374   2.7618   2.7672   2.7713   2.7845
     2.8147   2.8643   2.8739   2.9333   2.9685   3.0244   3.0290   3.0910
     3.0985   3.1024   3.1243   3.1366   3.1503   3.1932   3.2460   3.2607
     3.2699   3.2985   3.2992   3.3421   3.3488   3.3812   3.4094   3.4149
     3.4221   3.4547   3.4608   3.4688   3.4800   3.4953   3.5254   3.5368
     3.5491   3.5527   3.5877   3.5906   3.6267   3.6390   3.6478   3.6633
     3.6771   3.6909   3.7236   3.7345   3.7373   3.7508   3.7994   3.8052
     3.8127   3.8246   3.8343   3.8367   3.8486   3.8728   3.8777   3.8915
     3.8966   3.9145   3.9164   3.9179   3.9223   3.9322   3.9485   3.9662
     3.9813   3.9920   3.9946   4.0119   4.0285   4.0294   4.0407   4.0427
     4.0445   4.0456   4.0592   4.0713   4.0816   4.1074   4.1099   4.1216
     4.1223   4.1504   4.1512   4.1612   4.1661   4.1692   4.1913   4.1934
     4.2028   4.2084   4.2120   4.2131   4.2285   4.2432   4.2485   4.2541
     4.2784   4.2838   4.2913   4.2995   4.3004   4.3218   4.3358   4.3456
     4.3468   4.3762   4.3768   4.3830   4.3852   4.4078   4.4101   4.4246
     4.4415   4.4465   4.4613   4.4695   4.5056   4.5159   4.5326   4.5451
     4.5524   4.5548   4.5565   4.5661   4.5810   4.5833   4.5965   4.6097
     4.6250   4.6417   4.6447   4.6708   4.6963   4.7052   4.7697   4.7799
     4.7990   4.8032   4.8192   4.8439   4.8508   4.8763   4.8797   4.8860
     4.9074   4.9074   4.9116   4.9254   4.9483   4.9550   4.9713   4.9713
     4.9752   4.9784   5.0303   5.0439   5.0697   5.0732   5.0772   5.0934
     5.1008   5.1179   5.1598   5.1610   5.1929   5.2103   5.2143   5.2368
     5.2450   5.2517   5.2811   5.2904   5.2968   5.3092   5.3284   5.3343
     5.3455   5.3612   5.3645   5.3699   5.3753   5.3877   5.3882   5.4064
     5.4296   5.4447   5.4532   5.4627   5.4635   5.4855   5.4910   5.4945
     5.4973   5.5316   5.5370   5.5372   5.5489   5.5738   5.5755   5.5950
     5.6158   5.6419   5.6433   5.6438   5.6785   5.6861   5.7087   5.7089
     5.7299   5.7420   5.7493   5.7688   5.7918   5.8192   5.8262   5.8405
     5.8545   5.8624   5.8958   5.9021   5.9134   5.9146   5.9400   5.9579
     5.9702   5.9796   6.0107   6.0271   6.0295   6.0557   6.0635   6.0662
     6.0717   6.0870   6.0904   6.1051   6.1143   6.1196   6.1340   6.1521
     6.1544   6.1609   6.1739   6.1884   6.1951   6.1990   6.2013   6.2022
     6.2082   6.2180   6.2200   6.2285   6.2425   6.2475   6.2496   6.2572
     6.2587   6.2645   6.2685   6.2731   6.2875   6.2886   6.2958   6.3145
     6.3293   6.3390   6.3469   6.3473   6.3548   6.3587   6.3709   6.3753
     6.3800   6.3881   6.3900   6.3968   6.4011   6.4316   6.4546   6.4666
     6.4732   6.4737   6.4738   6.4820   6.5068   6.5306   6.5363   6.5374
     6.5404   6.5450   6.5460   6.5502   6.5592   6.5799   6.5874   6.6144
     6.6565   6.6673   6.6830   6.7144   6.7908   6.7981   6.8398   6.8405
     6.9103   6.9558   6.9640   7.0722   7.0948   7.1915   7.2982   7.3758
     7.4282   7.4843   7.5298   7.6598   7.7033   7.7552   7.7588   7.8871
     7.9649   8.2564   8.2718   8.3176   8.3488   8.5147   8.7451   8.8106
     8.9662   8.9803   9.0036   9.0600   9.1493   9.2329   9.2551   9.2600
     9.3437   9.5719   9.6172   9.6503   9.7776   9.7893   9.8020   9.8867
     9.9663  10.1476  10.2437  10.3086  10.3247  10.5114  10.7337  10.7664
    10.7994  10.8090  11.0016  11.0535  11.1194  11.2009  11.2894  11.3368
    11.3812  11.4399  11.5396  11.5532  11.6095  11.6595  11.6726  11.7684
    11.8382  11.8471  11.9862  12.0658  12.1284  12.1624  12.2721  12.2965
    12.3097  12.4714  12.4876  12.5138  12.7128  12.8816  12.8858  12.9858
    13.0007  13.0878  13.2908  13.4120  13.4959  13.5277  13.5798  13.6112
    13.6137  13.6344  13.6807  13.8496  13.9059  14.0027  14.0576  14.1027
    14.1620  14.2006  14.2312

          k = 0.1250 0.2406 0.0000 ( 55022 PWs)   bands (ev):

    -0.4405  -0.1547  -0.1060   0.1715   0.3816   0.6470   0.9506   1.2039
     1.4700   1.5750   1.6491   1.6801   1.7087   1.7733   1.7998   1.8192
     1.8669   1.8783   1.9139   1.9189   1.9255   2.0014   2.0016   2.0130
     2.0351   2.0358   2.0690   2.0732   2.1040   2.1110   2.1239   2.1460
     2.1482   2.1539   2.1708   2.1914   2.1931   2.2157   2.2288   2.2861
     2.2884   2.2891   2.2921   2.3279   2.3414   2.3457   2.3625   2.3731
     2.3890   2.4179   2.4279   2.4339   2.4592   2.4735   2.4816   2.5062
     2.5110   2.5378   2.5473   2.5897   2.5897   2.5973   2.6016   2.6479
     2.6485   2.6627   2.6633   2.6757   2.7098   2.7333   2.7507   2.7532
     2.7624   2.7935   2.8118   2.8313   2.8660   2.8787   2.8938   2.9007
     2.9846   3.0231   3.1231   3.1447   3.1694   3.1761   3.2073   3.2239
     3.2933   3.3059   3.3243   3.3295   3.3595   3.3858   3.3859   3.4117
     3.4473   3.4624   3.4783   3.5042   3.5241   3.5342   3.5613   3.5627
     3.5891   3.5923   3.5983   3.6087   3.6497   3.6545   3.6589   3.7060
     3.7155   3.7247   3.7371   3.7467   3.7593   3.7661   3.7956   3.8030
     3.8272   3.8288   3.8381   3.8391   3.8569   3.8702   3.8923   3.9000
     3.9185   3.9343   3.9449   3.9628   3.9807   3.9833   3.9979   4.0099
     4.0104   4.0303   4.0307   4.0359   4.0640   4.0664   4.0781   4.0812
     4.0964   4.1010   4.1054   4.1109   4.1301   4.1321   4.1376   4.1501
     4.1530   4.1693   4.1827   4.1986   4.2055   4.2084   4.2086   4.2285
     4.2299   4.2346   4.2506   4.2668   4.2698   4.2919   4.2934   4.2939
     4.2994   4.3026   4.3216   4.3229   4.3297   4.3331   4.3542   4.3573
     4.3623   4.3764   4.3880   4.3935   4.3964   4.4040   4.4320   4.4340
     4.4594   4.4648   4.4953   4.5038   4.5241   4.5338   4.5408   4.5422
     4.5557   4.5560   4.5829   4.6097   4.6191   4.6271   4.6622   4.6654
     4.6926   4.7013   4.7084   4.7145   4.7244   4.7275   4.7484   4.7638
     4.7675   4.7861   4.7893   4.7960   4.8183   4.8403   4.8488   4.9104
     4.9331   4.9425   4.9569   4.9628   4.9677   4.9680   5.0072   5.0133
     5.0190   5.0346   5.0589   5.0698   5.0712   5.0773   5.0941   5.0999
     5.1253   5.1290   5.1431   5.1485   5.1550   5.1830   5.1842   5.1945
     5.2263   5.2298   5.2606   5.2719   5.2808   5.2970   5.3216   5.3279
     5.3347   5.3478   5.3562   5.3608   5.3720   5.4003   5.4067   5.4191
     5.4376   5.4562   5.4635   5.4968   5.4986   5.5193   5.5266   5.5332
     5.5430   5.5433   5.5796   5.5871   5.5938   5.6077   5.6222   5.6301
     5.6354   5.6756   5.6794   5.6937   5.6972   5.7011   5.7257   5.7411
     5.7562   5.7627   5.7679   5.7925   5.7961   5.8068   5.8184   5.8260
     5.8727   5.8762   5.9009   5.9079   5.9080   5.9377   5.9525   5.9543
     5.9552   5.9586   5.9699   5.9802   5.9884   6.0003   6.0125   6.0186
     6.0288   6.0313   6.0322   6.0629   6.0719   6.0881   6.1029   6.1038
     6.1204   6.1213   6.1345   6.1470   6.1470   6.1480   6.1559   6.1642
     6.1669   6.1747   6.1799   6.1840   6.1869   6.2095   6.2189   6.2194
     6.2319   6.2324   6.2426   6.2473   6.2557   6.2597   6.2772   6.2809
     6.2888   6.2922   6.3209   6.3260   6.3377   6.3422   6.3575   6.3808
     6.3855   6.3876   6.3910   6.4198   6.4232   6.4345   6.4420   6.4527
     6.4812   6.4812   6.4921   6.5104   6.5110   6.5147   6.5184   6.5310
     6.5393   6.5403   6.5486   6.5494   6.5571   6.5637   6.5807   6.6144
     6.6641   6.6669   6.7070   6.7671   6.8179   6.8226   6.8325   6.8351
     6.8425   6.9226   6.9712   7.0300   7.0386   7.0593   7.1255   7.1763
     7.1870   7.2757   7.3456   7.3470   7.5599   7.5887   7.6639   7.6744
     7.8643   8.0188   8.2464   8.2604   8.3482   8.3645   8.8022   9.0041
     9.0299   9.0950   9.1235   9.2665   9.3014   9.3083   9.4091   9.4699
     9.4729   9.6380   9.6382   9.7734   9.7987   9.8458   9.8569   9.9280
    10.0797  10.1338  10.2082  10.3041  10.3669  10.3903  10.5121  10.5468
    10.5824  10.7551  10.8615  10.8782  11.0970  11.1786  11.2673  11.2952
    11.3706  11.5077  11.6901  11.7290  11.7681  11.9383  12.0032  12.0777
    12.1099  12.1581  12.2227  12.2483  12.2801  12.3198  12.3317  12.4724
    12.4819  12.5627  12.7155  12.7314  12.8588  12.8716  13.0057  13.0118
    13.0743  13.1319  13.2139  13.2583  13.2667  13.3371  13.3808  13.5353
    13.5407  13.5617  13.6858  13.7468  13.8518  13.8813  13.9067  14.0045
    14.1478  14.1993  14.2591

          k = 0.2083 0.0481 0.0000 ( 55067 PWs)   bands (ev):

    -0.5875  -0.2496   0.2428   0.7501   0.8164   1.0261   1.1688   1.3393
     1.4025   1.4233   1.6067   1.6471   1.6938   1.7255   1.7556   1.7632
     1.7976   1.8384   1.8537   1.8898   1.9311   1.9418   1.9646   1.9731
     1.9924   2.0436   2.0855   2.0887   2.1379   2.1387   2.1459   2.1986
     2.2168   2.2309   2.2416   2.2513   2.2893   2.3434   2.3437   2.3478
     2.3554   2.4010   2.4164   2.4224   2.4284   2.4307   2.4890   2.4986
     2.5322   2.5394   2.5684   2.5826   2.5924   2.6073   2.6192   2.6600
     2.6792   2.7041   2.7049   2.7087   2.7164   2.7552   2.7572   2.7676
     2.7828   2.7855   2.8081   2.8791   2.8833   2.9155   2.9313   2.9434
     2.9596   2.9870   3.0503   3.0698   3.0935   3.1030   3.1074   3.1522
     3.1565   3.1761   3.1813   3.1870   3.1941   3.2304   3.2477   3.2800
     3.2932   3.2947   3.3107   3.3115   3.3160   3.3305   3.3375   3.3517
     3.3737   3.4120   3.4162   3.4311   3.4487   3.4649   3.4696   3.4767
     3.4911   3.4920   3.5190   3.5397   3.5548   3.5577   3.5791   3.6008
     3.6149   3.6471   3.6488   3.6568   3.6664   3.6681   3.6801   3.6855
     3.7575   3.7582   3.7859   3.7886   3.7903   3.8182   3.8405   3.8485
     3.8517   3.8585   3.8605   3.8663   3.8919   3.8928   3.8982   3.9279
     3.9448   3.9539   3.9569   3.9643   3.9691   3.9693   3.9699   3.9963
     3.9986   4.0049   4.0122   4.0287   4.0298   4.0464   4.0477   4.0502
     4.0589   4.0632   4.0753   4.1147   4.1248   4.1369   4.1393   4.1420
     4.1498   4.1502   4.1614   4.1703   4.1722   4.1759   4.1832   4.1910
     4.2008   4.2147   4.2265   4.2488   4.2537   4.2595   4.2613   4.2635
     4.2694   4.2949   4.2951   4.3093   4.3242   4.3760   4.3851   4.3899
     4.4033   4.4081   4.4102   4.4217   4.4414   4.4615   4.4711   4.4815
     4.4940   4.5043   4.5298   4.5304   4.5500   4.5552   4.5661   4.5980
     4.6148   4.6167   4.6622   4.7195   4.7270   4.7580   4.7699   4.7719
     4.8218   4.8304   4.8352   4.8473   4.8532   4.8556   4.8765   4.8891
     4.9084   4.9103   4.9116   4.9237   4.9406   4.9467   4.9553   4.9776
     4.9897   5.0121   5.0317   5.0458   5.0544   5.0720   5.0845   5.0853
     5.0944   5.1316   5.1428   5.1878   5.1883   5.1884   5.1885   5.2127
     5.2191   5.2231   5.2290   5.2445   5.2591   5.2679   5.2687   5.2771
     5.2795   5.3154   5.3249   5.3352   5.3523   5.3590   5.3751   5.3822
     5.3882   5.3930   5.3937   5.4188   5.4293   5.4615   5.4624   5.4681
     5.4783   5.5075   5.5134   5.5263   5.5391   5.5472   5.5516   5.5563
     5.5627   5.5941   5.5963   5.6258   5.6284   5.6530   5.6631   5.6823
     5.6870   5.7288   5.7401   5.7502   5.7671   5.7944   5.7959   5.8123
     5.8127   5.8175   5.8328   5.8595   5.8615   5.8775   5.9058   5.9143
     5.9377   5.9451   5.9624   5.9746   5.9895   5.9984   6.0240   6.0403
     6.0561   6.0635   6.0643   6.0697   6.0910   6.0978   6.1077   6.1093
     6.1110   6.1271   6.1358   6.1461   6.1470   6.1587   6.1597   6.1635
     6.1637   6.1799   6.1802   6.1899   6.1919   6.2091   6.2250   6.2325
     6.2352   6.2354   6.2403   6.2418   6.2545   6.2635   6.2720   6.2763
     6.2767   6.2770   6.2854   6.2856   6.2897   6.2963   6.3090   6.3132
     6.3259   6.3469   6.3515   6.3629   6.3792   6.3852   6.3913   6.4200
     6.4220   6.4348   6.4377   6.4404   6.4451   6.4511   6.4539   6.4686
     6.4962   6.5025   6.5070   6.5571   6.5627   6.5718   6.5768   6.5934
     6.6186   6.6397   6.6570   6.6610   6.6677   6.6759   6.6848   6.6941
     6.7144   6.7159   6.7981   6.8757   6.9863   7.0633   7.0975   7.1044
     7.2568   7.2669   7.4133   7.5111   7.5948   7.6023   7.7092   7.7918
     7.9025   7.9880   8.0955   8.2152   8.2775   8.3050   8.5498   8.7358
     8.8266   8.9292   9.0115   9.0721   9.0888   9.1527   9.3477   9.4148
     9.6530   9.6603   9.7165   9.7776   9.8379   9.8853   9.9723  10.0377
    10.0481  10.2263  10.2621  10.4360  10.4454  10.5774  10.6215  10.9049
    11.0044  11.0661  11.1810  11.2102  11.2912  11.3185  11.3680  11.4649
    11.5088  11.5139  11.5187  11.5922  11.6759  11.7287  11.7801  11.8405
    11.9628  12.0043  12.0149  12.0997  12.1628  12.3030  12.3516  12.3762
    12.5155  12.5737  12.6338  12.7545  12.8498  12.9213  12.9617  13.0674
    13.2234  13.4246  13.4743  13.5123  13.5702  13.6158  13.7456  13.7555
    13.7672  13.8010  13.8406  14.0120  14.1022  14.1306  14.1508  14.1848
    14.2947  14.3916  14.5288

          k = 0.2083 0.1443 0.0000 ( 55049 PWs)   bands (ev):

    -0.4894  -0.1536   0.3358   0.3412   0.6460   0.9070   1.0889   1.4283
     1.5163   1.5724   1.6072   1.7306   1.7333   1.7477   1.7898   1.8180
     1.8302   1.8359   1.8509   1.9450   1.9505   1.9605   2.0294   2.0369
     2.0433   2.0716   2.0771   2.1040   2.1152   2.1317   2.1957   2.2216
     2.2403   2.2549   2.2722   2.2913   2.2934   2.3040   2.3509   2.3573
     2.3716   2.3869   2.3923   2.4375   2.4381   2.4433   2.4563   2.4620
     2.4653   2.4713   2.4842   2.4883   2.5106   2.5702   2.5776   2.5878
     2.5890   2.6117   2.6370   2.6880   2.6883   2.7008   2.7052   2.7075
     2.7508   2.7847   2.7883   2.7938   2.8161   2.8262   2.8356   2.8617
     2.8766   2.9015   2.9878   2.9983   3.0069   3.0535   3.0791   3.1068
     3.1083   3.1253   3.1701   3.1794   3.1813   3.1957   3.2440   3.2608
     3.2731   3.3153   3.3236   3.3392   3.3704   3.3872   3.3901   3.4221
     3.4276   3.4379   3.4383   3.4498   3.4609   3.4900   3.4902   3.4950
     3.5051   3.5387   3.5631   3.5669   3.5836   3.5912   3.6179   3.6259
     3.6492   3.6889   3.6930   3.7070   3.7237   3.7277   3.7314   3.7374
     3.7494   3.7596   3.8015   3.8058   3.8133   3.8390   3.8413   3.8595
     3.8768   3.8802   3.8833   3.8988   3.9150   3.9213   3.9235   3.9397
     3.9495   3.9561   3.9668   3.9785   3.9907   3.9985   4.0172   4.0245
     4.0263   4.0274   4.0382   4.0681   4.0735   4.0767   4.0782   4.1155
     4.1164   4.1334   4.1449   4.1598   4.1680   4.1795   4.1828   4.1891
     4.2001   4.2092   4.2100   4.2233   4.2266   4.2400   4.2412   4.2496
     4.2595   4.2871   4.2891   4.3070   4.3072   4.3126   4.3152   4.3250
     4.3392   4.3455   4.3482   4.3527   4.3603   4.3605   4.3721   4.3826
     4.4133   4.4162   4.4575   4.4811   4.4829   4.4866   4.4891   4.5158
     4.5209   4.5239   4.5396   4.5412   4.5441   4.5651   4.5823   4.5835
     4.5969   4.6383   4.6417   4.6596   4.6825   4.7014   4.7478   4.7532
     4.7587   4.7635   4.7902   4.8230   4.8287   4.8362   4.8425   4.8457
     4.8582   4.8764   4.9194   4.9278   4.9330   4.9426   4.9526   4.9564
     4.9754   4.9811   4.9946   5.0152   5.0261   5.0288   5.0593   5.0808
     5.1062   5.1085   5.1347   5.1544   5.1555   5.1652   5.1765   5.1770
     5.1928   5.1964   5.1965   5.2143   5.2198   5.2271   5.2398   5.2582
     5.2971   5.3035   5.3064   5.3091   5.3368   5.3411   5.3470   5.3535
     5.3610   5.3813   5.3900   5.3969   5.4362   5.4523   5.4538   5.4715
     5.4786   5.4918   5.4940   5.5231   5.5271   5.5344   5.5448   5.5524
     5.5724   5.5765   5.6116   5.6200   5.6209   5.6413   5.6434   5.6562
     5.6725   5.6826   5.7298   5.7533   5.7753   5.8014   5.8166   5.8219
     5.8478   5.8596   5.8669   5.8840   5.9184   5.9232   5.9374   5.9442
     5.9495   5.9625   5.9699   5.9862   5.9949   6.0084   6.0154   6.0165
     6.0290   6.0392   6.0422   6.0518   6.0607   6.0682   6.0729   6.0950
     6.0952   6.1001   6.1193   6.1253   6.1338   6.1423   6.1466   6.1594
     6.1615   6.1687   6.1717   6.1737   6.1868   6.1933   6.2000   6.2112
     6.2193   6.2240   6.2257   6.2355   6.2481   6.2591   6.2648   6.2708
     6.2716   6.2723   6.2783   6.3098   6.3122   6.3178   6.3220   6.3399
     6.3509   6.3510   6.3662   6.3729   6.3837   6.3870   6.3900   6.4026
     6.4133   6.4163   6.4311   6.4313   6.4404   6.4434   6.4466   6.4523
     6.4755   6.4826   6.4960   6.5005   6.5086   6.5481   6.5579   6.5935
     6.6018   6.6099   6.6146   6.6630   6.6739   6.6775   6.6830   6.7111
     6.7149   6.7184   6.7232   6.7548   6.8584   6.8592   6.9699   7.0815
     7.1299   7.2085   7.2890   7.5872   7.6102   7.7383   7.7916   7.9544
     8.0388   8.0671   8.1679   8.2635   8.3151   8.3635   8.3997   8.4577
     8.6851   8.7158   8.9061   8.9642   9.0905   9.2937   9.3241   9.4100
     9.4722   9.7443   9.7508   9.8460   9.8477   9.9371  10.0410  10.1394
    10.2084  10.3990  10.4852  10.4983  10.5359  10.5949  10.7893  10.7904
    10.9617  10.9863  11.0081  11.0412  11.0646  11.1419  11.2130  11.3909
    11.4139  11.4747  11.6671  11.6774  11.7684  11.7863  11.8454  11.8818
    11.9904  12.1724  12.2139  12.2571  12.2998  12.4105  12.4302  12.4400
    12.6151  12.6156  12.6410  12.9277  12.9936  13.0109  13.1153  13.1578
    13.1746  13.4024  13.5265  13.5747  13.5947  13.6174  13.6317  13.7303
    13.7704  13.9136  13.9240  14.1859  14.2062  14.2828  14.2855  14.2920
    14.2968  14.4467  14.4922

          k = 0.2083 0.2406 0.0000 ( 54996 PWs)   bands (ev):

    -0.2963  -0.0151   0.0346   0.3064   0.5171   0.7753   1.0820   1.3264
     1.5900   1.5993   1.6534   1.7082   1.7753   1.8301   1.8310   1.8822
     1.8926   1.9456   1.9848   1.9973   2.0089   2.0219   2.0383   2.0863
     2.0947   2.0984   2.1130   2.1327   2.1388   2.1597   2.1783   2.1825
     2.2188   2.2191   2.2314   2.2430   2.2451   2.2592   2.3038   2.3195
     2.3319   2.3376   2.3560   2.3700   2.3710   2.4264   2.4394   2.4483
     2.4678   2.4701   2.4759   2.5039   2.5197   2.5291   2.5475   2.5603
     2.5779   2.5928   2.6340   2.6434   2.6454   2.6575   2.6896   2.7050
     2.7104   2.7329   2.7542   2.7749   2.7849   2.7928   2.8136   2.8174
     2.8492   2.8589   2.8852   2.8935   2.9119   2.9372   2.9592   2.9842
     3.0681   3.1049   3.1393   3.1620   3.1924   3.2154   3.2254   3.2885
     3.2907   3.3108   3.3116   3.3178   3.3499   3.3551   3.3840   3.4263
     3.4329   3.4413   3.4639   3.4826   3.5068   3.5072   3.5135   3.5365
     3.5512   3.5737   3.5747   3.5851   3.5921   3.6107   3.6519   3.6647
     3.6649   3.6707   3.6858   3.7031   3.7540   3.7572   3.7579   3.7726
     3.7961   3.8099   3.8140   3.8367   3.8529   3.8614   3.8868   3.9017
     3.9080   3.9101   3.9155   3.9261   3.9370   3.9377   3.9548   3.9724
     4.0156   4.0160   4.0236   4.0255   4.0270   4.0465   4.0552   4.0640
     4.0787   4.0829   4.0923   4.1072   4.1176   4.1386   4.1447   4.1557
     4.1595   4.1816   4.1874   4.1998   4.2015   4.2162   4.2209   4.2248
     4.2363   4.2406   4.2452   4.2576   4.2647   4.2647   4.2693   4.2794
     4.2896   4.2941   4.3101   4.3113   4.3176   4.3242   4.3352   4.3439
     4.3811   4.3900   4.3909   4.4115   4.4132   4.4228   4.4286   4.4388
     4.4443   4.4655   4.4751   4.4815   4.4816   4.5152   4.5482   4.5767
     4.5776   4.5788   4.5828   4.5904   4.5914   4.6012   4.6122   4.6306
     4.6541   4.6544   4.6567   4.6664   4.6745   4.6793   4.6990   4.7091
     4.7208   4.7319   4.7555   4.7612   4.8105   4.8105   4.8122   4.8239
     4.8571   4.8659   4.8812   4.9028   4.9056   4.9126   4.9424   4.9486
     4.9543   4.9778   4.9814   4.9957   5.0015   5.0041   5.0113   5.0269
     5.0294   5.0472   5.0557   5.0797   5.0993   5.1037   5.1107   5.1192
     5.1485   5.1784   5.1879   5.1898   5.1991   5.2399   5.2447   5.2505
     5.2744   5.2745   5.3005   5.3231   5.3607   5.3611   5.3796   5.3900
     5.4085   5.4134   5.4328   5.4397   5.4477   5.4519   5.4580   5.4668
     5.4758   5.4820   5.4929   5.5123   5.5324   5.5351   5.5460   5.5659
     5.5807   5.5892   5.6003   5.6085   5.6186   5.6460   5.6597   5.6702
     5.6703   5.6850   5.6971   5.7383   5.7523   5.7551   5.7627   5.7695
     5.7866   5.8025   5.8085   5.8305   5.8419   5.8442   5.8697   5.8959
     5.8989   5.9032   5.9061   5.9218   5.9411   5.9527   5.9698   5.9793
     5.9921   5.9938   6.0058   6.0071   6.0204   6.0248   6.0393   6.0464
     6.0623   6.0646   6.0748   6.0791   6.0814   6.1018   6.1391   6.1397
     6.1528   6.1701   6.1769   6.1780   6.1853   6.1948   6.1949   6.2031
     6.2040   6.2152   6.2202   6.2221   6.2299   6.2340   6.2438   6.2492
     6.2650   6.2651   6.2977   6.3061   6.3106   6.3308   6.3442   6.3645
     6.3736   6.3787   6.3863   6.3913   6.4052   6.4064   6.4096   6.4169
     6.4304   6.4350   6.4446   6.4543   6.4589   6.4614   6.4798   6.4927
     6.5123   6.5158   6.5162   6.5305   6.5585   6.5633   6.5647   6.5891
     6.6244   6.6390   6.6477   6.6608   6.6864   6.7001   6.7034   6.7099
     6.7128   6.7900   6.8080   6.8301   6.9007   6.9038   7.0368   7.0445
     7.0562   7.1588   7.3105   7.3471   7.3800   7.5687   7.5832   7.6134
     7.6835   7.8962   8.1149   8.2718   8.3434   8.4009   8.5023   8.6555
     8.9270   9.0182   9.0663   9.1223   9.2273   9.4169   9.5025   9.5992
     9.6256   9.6731   9.8454   9.8882   9.8994   9.9212   9.9252  10.0437
    10.1182  10.1417  10.2489  10.4139  10.4615  10.5331  10.5512  10.5841
    10.6277  10.7316  10.8576  11.0368  11.0518  11.0607  11.2436  11.3895
    11.4985  11.5490  11.5826  11.6985  11.8924  11.9459  12.0835  12.0924
    12.1921  12.2854  12.3445  12.3901  12.4528  12.5621  12.5973  12.6903
    12.8315  12.9805  13.0403  13.1130  13.1465  13.2451  13.2769  13.2779
    13.3706  13.3735  13.4833  13.5421  13.6263  13.6399  13.6612  13.7670
    13.8338  13.9446  14.0388  14.0745  14.0908  14.1922  14.2423  14.3197
    14.3729  14.3829  14.4068

          k = 0.2917 0.0481 0.0000 ( 55058 PWs)   bands (ev):

    -0.3679  -0.0349   0.4511   0.9342   1.0199   1.1954   1.3533   1.4556
     1.5408   1.5603   1.5753   1.6084   1.6541   1.7428   1.8361   1.8517
     1.8582   1.9269   1.9356   1.9443   1.9686   1.9865   2.0084   2.0150
     2.0593   2.1028   2.1098   2.1686   2.1984   2.2044   2.2247   2.2445
     2.2804   2.3081   2.3261   2.3319   2.3550   2.3930   2.4285   2.4666
     2.4879   2.5137   2.5203   2.5477   2.5523   2.5643   2.5681   2.5777
     2.5964   2.6211   2.6684   2.6825   2.6990   2.7237   2.7341   2.7667
     2.7748   2.7842   2.7884   2.7957   2.8148   2.8213   2.8467   2.8533
     2.8573   2.8982   2.9033   2.9215   2.9351   2.9424   2.9599   3.0440
     3.0564   3.0638   3.0663   3.0851   3.0968   3.1118   3.1120   3.1291
     3.1539   3.1656   3.1789   3.1882   3.2023   3.2065   3.2336   3.2418
     3.2559   3.2568   3.2801   3.3022   3.3072   3.3250   3.3273   3.3482
     3.3493   3.3797   3.3820   3.3984   3.4155   3.4272   3.4352   3.4415
     3.4532   3.4656   3.4692   3.4791   3.4858   3.5124   3.5136   3.5212
     3.5387   3.5938   3.6199   3.6446   3.6486   3.6673   3.6800   3.6888
     3.6940   3.6944   3.7211   3.7454   3.7656   3.7759   3.8069   3.8188
     3.8233   3.8333   3.8503   3.8526   3.8564   3.8647   3.8653   3.8940
     3.8953   3.8963   3.9090   3.9156   3.9292   3.9347   3.9771   3.9804
     3.9859   3.9984   4.0122   4.0210   4.0242   4.0329   4.0457   4.0516
     4.0604   4.0635   4.0672   4.0903   4.1008   4.1009   4.1094   4.1255
     4.1348   4.1567   4.1585   4.1650   4.1717   4.1817   4.1878   4.1920
     4.1936   4.1967   4.2039   4.2578   4.2606   4.2626   4.2644   4.2651
     4.2758   4.2824   4.3028   4.3264   4.3275   4.3625   4.3718   4.3823
     4.3899   4.4017   4.4111   4.4377   4.4434   4.4577   4.4625   4.4689
     4.4875   4.4956   4.5345   4.5439   4.5612   4.5684   4.5955   4.6093
     4.6159   4.6185   4.6226   4.6693   4.6720   4.6959   4.7176   4.7258
     4.7479   4.7571   4.7628   4.7728   4.7916   4.8209   4.8219   4.8452
     4.8496   4.9044   4.9076   4.9123   4.9278   4.9421   4.9474   4.9634
     4.9718   5.0019   5.0082   5.0090   5.0171   5.0351   5.0355   5.0537
     5.0754   5.0855   5.0935   5.1157   5.1189   5.1204   5.1405   5.1598
     5.1795   5.1814   5.1826   5.1832   5.2002   5.2017   5.2228   5.2243
     5.2261   5.2466   5.2857   5.2984   5.3052   5.3307   5.3322   5.3362
     5.3383   5.3493   5.3568   5.3581   5.3742   5.3914   5.4316   5.4377
     5.4455   5.4534   5.4949   5.5069   5.5215   5.5241   5.5275   5.5353
     5.5499   5.5520   5.5779   5.5814   5.6042   5.6305   5.6348   5.6491
     5.6825   5.6985   5.7127   5.7241   5.7256   5.7351   5.7369   5.7835
     5.7902   5.8209   5.8221   5.8333   5.8408   5.8497   5.8657   5.8762
     5.8924   5.8937   5.9150   5.9182   5.9195   5.9231   5.9364   5.9428
     5.9471   5.9645   5.9672   5.9797   5.9956   5.9961   6.0045   6.0220
     6.0346   6.0443   6.0470   6.0552   6.0594   6.0739   6.0749   6.0935
     6.1050   6.1064   6.1109   6.1118   6.1373   6.1511   6.1530   6.1572
     6.1660   6.1703   6.1781   6.1842   6.1868   6.1947   6.2041   6.2080
     6.2190   6.2247   6.2286   6.2326   6.2372   6.2451   6.2462   6.2548
     6.2553   6.2664   6.2716   6.2809   6.2852   6.2905   6.2970   6.3103
     6.3179   6.3239   6.3323   6.3398   6.3533   6.3591   6.3781   6.4020
     6.4109   6.4339   6.4548   6.4573   6.4639   6.4767   6.4868   6.5108
     6.5186   6.5381   6.5427   6.5512   6.5610   6.5730   6.6052   6.6073
     6.6163   6.6330   6.6516   6.7524   6.8336   6.8433   6.8497   7.0249
     7.0432   7.0694   7.1384   7.3219   7.3901   7.4502   7.5048   7.5591
     7.6751   7.7618   7.7769   8.1870   8.3176   8.3274   8.4069   8.5057
     8.5513   8.9505   9.1543   9.1957   9.2039   9.2744   9.3500   9.4316
     9.5608   9.5966   9.8072  10.0619  10.0887  10.1079  10.1143  10.2360
    10.3164  10.4055  10.4275  10.5699  10.6039  10.6502  10.7539  10.8439
    10.9612  10.9785  10.9989  11.2135  11.2963  11.3199  11.4308  11.5299
    11.5650  11.6562  11.7078  11.7442  11.8666  11.8930  12.1669  12.2111
    12.2805  12.3412  12.3797  12.5295  12.6837  12.6966  12.7821  12.7868
    12.7925  12.9220  12.9952  13.0181  13.0271  13.1706  13.1752  13.2655
    13.3817  13.5638  13.6172  13.6374  13.7549  13.7606  13.8094  13.8820
    13.9286  13.9920  14.0034  14.0990  14.1098  14.2519  14.3126  14.3718
    14.4925  14.6878  14.6927

          k = 0.2917 0.1443 0.0000 ( 55039 PWs)   bands (ev):

    -0.2732   0.0570   0.5326   0.5388   0.8262   1.1032   1.2518   1.4454
     1.5141   1.6203   1.6549   1.7085   1.7532   1.7534   1.8920   1.9078
     1.9131   1.9173   1.9602   1.9790   2.0072   2.0177   2.0273   2.0828
     2.1293   2.1383   2.1448   2.1528   2.1893   2.2043   2.2326   2.3010
     2.3165   2.3280   2.3475   2.3573   2.4182   2.4341   2.4353   2.4510
     2.4609   2.4811   2.5195   2.5225   2.5239   2.5383   2.5407   2.5661
     2.5686   2.5991   2.6022   2.6043   2.6063   2.6252   2.6464   2.6513
     2.6556   2.6854   2.7144   2.7794   2.7948   2.8137   2.8171   2.8213
     2.8252   2.8306   2.8465   2.8670   2.8946   2.9314   2.9346   2.9367
     2.9514   2.9852   3.0257   3.0586   3.0861   3.0896   3.1081   3.1119
     3.1388   3.1637   3.1648   3.2038   3.2289   3.2319   3.2649   3.2685
     3.2905   3.2936   3.3121   3.3384   3.3444   3.3451   3.3705   3.3712
     3.3849   3.4124   3.4265   3.4393   3.4528   3.4559   3.4617   3.4670
     3.5057   3.5106   3.5120   3.5393   3.5479   3.5590   3.5597   3.6049
     3.6276   3.6360   3.6485   3.6588   3.6623   3.6768   3.6833   3.6881
     3.6976   3.7306   3.7372   3.7387   3.7485   3.7526   3.7720   3.7993
     3.8001   3.8402   3.8452   3.8816   3.8833   3.8993   3.9064   3.9115
     3.9280   3.9424   3.9459   3.9833   3.9838   3.9840   3.9866   4.0155
     4.0209   4.0318   4.0504   4.0680   4.0772   4.0803   4.0855   4.1023
     4.1092   4.1227   4.1304   4.1405   4.1423   4.1570   4.1587   4.1627
     4.1958   4.1966   4.2083   4.2176   4.2241   4.2324   4.2449   4.2477
     4.2614   4.2739   4.2765   4.2783   4.2795   4.2984   4.2990   4.3069
     4.3113   4.3150   4.3202   4.3331   4.3445   4.3605   4.3654   4.3745
     4.3776   4.3885   4.3963   4.4473   4.4484   4.4567   4.4712   4.4712
     4.4754   4.5009   4.5323   4.5349   4.5449   4.5578   4.5774   4.5883
     4.6040   4.6110   4.6215   4.6455   4.6810   4.7054   4.7222   4.7245
     4.7456   4.7481   4.7703   4.7768   4.7789   4.7880   4.7892   4.8283
     4.8642   4.8658   4.8760   4.8845   4.8860   4.8899   4.9351   4.9386
     4.9499   4.9597   4.9607   4.9692   4.9779   4.9818   4.9932   5.0012
     5.0204   5.0228   5.0339   5.0605   5.0702   5.0776   5.1158   5.1208
     5.1380   5.1406   5.1417   5.1763   5.1799   5.1883   5.1922   5.2045
     5.2349   5.2363   5.2411   5.2655   5.2783   5.2807   5.2838   5.3083
     5.3147   5.3301   5.3404   5.3508   5.3678   5.3713   5.3907   5.4077
     5.4248   5.4409   5.4761   5.4763   5.4768   5.4833   5.5003   5.5011
     5.5013   5.5481   5.5620   5.5690   5.6041   5.6068   5.6084   5.6378
     5.6393   5.6443   5.6461   5.6784   5.7056   5.7066   5.7249   5.7643
     5.7705   5.7817   5.7930   5.8028   5.8059   5.8060   5.8249   5.8300
     5.8498   5.8640   5.8655   5.8678   5.8725   5.8741   5.8746   5.9027
     5.9342   5.9468   5.9602   5.9627   5.9905   6.0004   6.0151   6.0247
     6.0371   6.0388   6.0400   6.0551   6.0700   6.0712   6.0791   6.0843
     6.0972   6.0974   6.1134   6.1142   6.1173   6.1274   6.1389   6.1582
     6.1584   6.1673   6.1730   6.1740   6.1871   6.2026   6.2079   6.2198
     6.2303   6.2330   6.2467   6.2483   6.2506   6.2603   6.2655   6.2727
     6.2728   6.2772   6.2789   6.2847   6.2877   6.2930   6.3085   6.3208
     6.3268   6.3430   6.3593   6.3651   6.3889   6.3935   6.3984   6.4058
     6.4063   6.4319   6.4489   6.4510   6.4818   6.4912   6.5059   6.5124
     6.5221   6.5432   6.5533   6.5657   6.5658   6.5896   6.6062   6.6197
     6.6323   6.6380   6.6432   6.6858   6.6892   6.7296   6.9244   6.9247
     7.0478   7.0653   7.2740   7.4938   7.5483   7.7307   7.7763   7.8008
     7.9452   7.9758   8.1508   8.2575   8.2735   8.2894   8.3698   8.5300
     8.5463   8.5880   8.6314   8.8933   9.1128   9.1191   9.2909   9.3416
     9.6030   9.6246   9.7716   9.8272   9.8986  10.0791  10.1321  10.2286
    10.2449  10.2738  10.5217  10.6216  10.7042  10.7221  10.7304  10.8690
    11.0463  11.1560  11.2131  11.2897  11.2952  11.3936  11.4103  11.4933
    11.5979  11.6754  11.8268  11.8561  11.8663  11.9337  11.9899  12.2274
    12.2620  12.3667  12.3864  12.4261  12.4966  12.6324  12.8159  12.8850
    12.9058  12.9942  13.0533  13.0565  13.1393  13.3113  13.3797  13.4297
    13.4738  13.5616  13.6656  13.7754  13.7841  13.8453  13.9313  13.9659
    13.9691  14.0722  14.1192  14.2733  14.2917  14.3064  14.3925  14.4481
    14.4580  14.6403  14.6491

          k = 0.2917 0.2406 0.0000 ( 55053 PWs)   bands (ev):

    -0.0866   0.1858   0.2374   0.4985   0.7098   0.9540   1.2644   1.4409
     1.4600   1.4903   1.6634   1.6925   1.7736   1.8937   1.9118   1.9302
     1.9509   1.9844   2.0384   2.0467   2.1078   2.1107   2.1115   2.1414
     2.1657   2.1857   2.1977   2.2007   2.2151   2.2357   2.2487   2.2930
     2.3161   2.3181   2.3263   2.3328   2.3628   2.3654   2.3756   2.3856
     2.4307   2.4338   2.4620   2.4671   2.4852   2.5089   2.5097   2.5372
     2.5513   2.5628   2.5868   2.5917   2.5992   2.6208   2.6454   2.6637
     2.6784   2.6825   2.6916   2.7284   2.7309   2.7644   2.7659   2.7660
     2.7811   2.8203   2.8367   2.8679   2.8721   2.8938   2.8949   2.9182
     2.9233   2.9538   2.9795   2.9893   2.9984   3.0498   3.0778   3.0835
     3.1143   3.1696   3.1772   3.1929   3.1967   3.2461   3.2507   3.2640
     3.2821   3.2914   3.3062   3.3229   3.3322   3.3421   3.3686   3.4056
     3.4119   3.4541   3.4594   3.4750   3.4861   3.4863   3.4880   3.5107
     3.5186   3.5224   3.5507   3.5661   3.5822   3.5853   3.5860   3.5952
     3.6084   3.6240   3.6441   3.6613   3.6743   3.6952   3.6991   3.7272
     3.7444   3.7467   3.7602   3.8140   3.8196   3.8360   3.8494   3.8576
     3.8903   3.8915   3.8922   3.8974   3.9201   3.9215   3.9386   3.9648
     3.9709   3.9943   3.9944   4.0213   4.0351   4.0368   4.0444   4.0531
     4.0547   4.0662   4.0703   4.0853   4.0916   4.1067   4.1084   4.1252
     4.1355   4.1357   4.1385   4.1723   4.1753   4.1855   4.1951   4.2118
     4.2250   4.2319   4.2337   4.2467   4.2529   4.2619   4.2644   4.2795
     4.2897   4.2897   4.3137   4.3138   4.3321   4.3391   4.3408   4.3499
     4.3582   4.3693   4.3780   4.3813   4.3985   4.4064   4.4095   4.4363
     4.4400   4.4469   4.4492   4.4590   4.4716   4.5035   4.5197   4.5280
     4.5361   4.5543   4.5637   4.5806   4.5841   4.5865   4.5951   4.6078
     4.6095   4.6278   4.6326   4.6435   4.6456   4.6644   4.6740   4.6841
     4.6879   4.7017   4.7019   4.7118   4.7153   4.7319   4.7354   4.7528
     4.7756   4.7843   4.7949   4.8115   4.8156   4.8460   4.8614   4.8700
     4.8792   4.8835   4.8952   4.9263   4.9505   4.9568   4.9599   4.9687
     4.9823   5.0013   5.0078   5.0127   5.0313   5.0384   5.0689   5.0744
     5.0995   5.1175   5.1236   5.1377   5.1398   5.1422   5.1919   5.1933
     5.2004   5.2363   5.2510   5.2561   5.2673   5.2732   5.2742   5.3281
     5.3488   5.3517   5.3589   5.3631   5.3689   5.3694   5.3937   5.4211
     5.4299   5.4353   5.4442   5.4745   5.4757   5.4833   5.4861   5.4967
     5.5075   5.5276   5.5318   5.5350   5.5619   5.5666   5.5752   5.5823
     5.5878   5.6160   5.6233   5.6322   5.6586   5.6666   5.6729   5.6740
     5.6831   5.6845   5.7017   5.7037   5.7509   5.7618   5.7682   5.7791
     5.7851   5.7939   5.8157   5.8216   5.8261   5.8335   5.8399   5.8486
     5.8631   5.8633   5.8665   5.8956   5.9248   5.9260   5.9511   5.9725
     5.9805   5.9827   6.0351   6.0401   6.0437   6.0446   6.0589   6.0742
     6.0780   6.0987   6.1182   6.1248   6.1332   6.1454   6.1501   6.1530
     6.1660   6.1743   6.1848   6.1848   6.1849   6.2034   6.2162   6.2164
     6.2167   6.2221   6.2270   6.2342   6.2432   6.2498   6.2573   6.2653
     6.2750   6.2811   6.2942   6.2991   6.3215   6.3313   6.3323   6.3389
     6.3450   6.3679   6.3789   6.3867   6.4063   6.4064   6.4117   6.4446
     6.4483   6.4571   6.4766   6.4814   6.4999   6.5276   6.5278   6.5319
     6.5519   6.5557   6.5593   6.5710   6.5796   6.6250   6.6369   6.6461
     6.6609   6.6881   6.7071   6.7858   6.9632   7.0525   7.0718   7.0724
     7.1244   7.1976   7.2155   7.4952   7.6056   7.6510   7.6809   7.8154
     7.8624   7.8905   7.9145   8.2540   8.4280   8.4911   8.5653   8.5741
     8.5796   8.7092   8.7554   8.9832   9.0192   9.1775   9.3041   9.3183
     9.4020   9.4512   9.6119   9.7536   9.8261   9.9024   9.9146  10.1068
    10.2201  10.2960  10.4216  10.4931  10.5535  10.7647  10.8096  10.8738
    11.0009  11.0828  11.1013  11.1537  11.2807  11.2938  11.2964  11.4191
    11.5453  11.7826  11.8597  12.0280  12.1211  12.1903  12.3048  12.3495
    12.3903  12.4783  12.4982  12.6506  12.6589  12.7768  12.8746  12.9365
    12.9767  13.0761  13.1662  13.1673  13.2625  13.3195  13.4157  13.5243
    13.5369  13.7073  13.7484  13.7665  13.8267  13.9554  13.9636  14.0431
    14.1422  14.2053  14.2494  14.3746  14.3758  14.4866  14.5285  14.5519
    14.5899  14.6825  14.7055

          k = 0.3750 0.0481 0.0000 ( 55067 PWs)   bands (ev):

    -0.0846   0.2400   0.7140   1.0432   1.1487   1.2720   1.2944   1.3873
     1.5597   1.5862   1.6525   1.7201   1.7421   1.7842   1.7875   1.8189
     1.9844   2.0166   2.0457   2.0639   2.0744   2.1065   2.1175   2.1585
     2.1598   2.1606   2.1813   2.2210   2.2484   2.2685   2.2787   2.3424
     2.3865   2.4082   2.4493   2.4521   2.4582   2.4967   2.5077   2.5234
     2.5874   2.5949   2.5971   2.5987   2.6203   2.6394   2.6680   2.6956
     2.7210   2.7223   2.7239   2.7323   2.7397   2.7627   2.7889   2.7938
     2.8032   2.8652   2.8652   2.8673   2.8858   2.8997   2.9061   2.9230
     2.9331   2.9373   2.9516   2.9524   2.9917   2.9947   3.0088   3.0233
     3.0252   3.0442   3.0848   3.1099   3.1114   3.1270   3.1437   3.1681
     3.1692   3.1791   3.1889   3.1942   3.2295   3.2307   3.2328   3.2437
     3.2545   3.2595   3.2838   3.2873   3.2959   3.3046   3.3240   3.3244
     3.3289   3.3481   3.3630   3.3796   3.3834   3.3984   3.4114   3.4145
     3.4517   3.4520   3.4593   3.4711   3.4805   3.4892   3.5049   3.5223
     3.5335   3.5487   3.5777   3.5964   3.5998   3.6110   3.6514   3.6613
     3.6688   3.6838   3.6933   3.7052   3.7102   3.7162   3.7227   3.7752
     3.8099   3.8315   3.8375   3.8416   3.8471   3.8619   3.8622   3.8636
     3.8812   3.8854   3.9089   3.9338   3.9346   3.9347   3.9533   3.9580
     3.9743   3.9758   3.9930   4.0021   4.0116   4.0332   4.0340   4.0459
     4.0521   4.0544   4.0563   4.0808   4.0814   4.0962   4.0973   4.1063
     4.1105   4.1259   4.1322   4.1486   4.1558   4.1753   4.1861   4.1977
     4.2022   4.2037   4.2120   4.2203   4.2585   4.2721   4.2909   4.2964
     4.2967   4.2983   4.3330   4.3408   4.3421   4.3454   4.3578   4.3788
     4.3869   4.4072   4.4216   4.4274   4.4400   4.4497   4.4510   4.4529
     4.4900   4.4993   4.5131   4.5339   4.5553   4.5610   4.5975   4.6016
     4.6045   4.6208   4.6296   4.6364   4.6468   4.6524   4.6567   4.6794
     4.6796   4.6877   4.7162   4.7168   4.7303   4.7569   4.7614   4.7935
     4.7959   4.8000   4.8321   4.8683   4.8996   4.9234   4.9254   4.9365
     4.9393   4.9533   4.9555   4.9593   4.9630   4.9784   5.0018   5.0068
     5.0097   5.0268   5.0296   5.0610   5.0615   5.0623   5.0759   5.0781
     5.1055   5.1085   5.1359   5.1588   5.1605   5.1698   5.1785   5.1984
     5.2095   5.2167   5.2257   5.2319   5.2498   5.2578   5.2592   5.2645
     5.2733   5.2990   5.3291   5.3343   5.3385   5.3529   5.3733   5.3776
     5.3967   5.4209   5.4283   5.4285   5.4429   5.4739   5.5019   5.5061
     5.5146   5.5326   5.5437   5.5579   5.5662   5.5817   5.5874   5.5882
     5.5884   5.6050   5.6050   5.6463   5.6574   5.6589   5.6681   5.6828
     5.7008   5.7049   5.7089   5.7091   5.7297   5.7328   5.7331   5.7561
     5.7636   5.7911   5.8047   5.8065   5.8364   5.8484   5.8936   5.8942
     5.9055   5.9091   5.9233   5.9290   5.9370   5.9462   5.9534   5.9657
     5.9712   5.9810   5.9936   5.9954   5.9983   6.0271   6.0446   6.0453
     6.0551   6.0586   6.0649   6.0670   6.0848   6.0907   6.1018   6.1020
     6.1098   6.1128   6.1183   6.1400   6.1453   6.1462   6.1497   6.1583
     6.1733   6.1741   6.1875   6.1890   6.1924   6.1984   6.2009   6.2041
     6.2054   6.2153   6.2266   6.2298   6.2433   6.2470   6.2513   6.2739
     6.2819   6.2968   6.3020   6.3194   6.3197   6.3240   6.3368   6.3376
     6.3413   6.3524   6.3830   6.3983   6.4278   6.4374   6.4442   6.4443
     6.4674   6.4763   6.4812   6.4966   6.5002   6.5417   6.5515   6.5624
     6.5972   6.6062   6.6175   6.6193   6.6485   6.7402   6.7659   6.9106
     7.0281   7.0356   7.0979   7.1076   7.1109   7.2480   7.3597   7.4693
     7.7230   7.7554   7.7937   7.9447   8.0549   8.2669   8.5444   8.5653
     8.6215   8.7745   8.8095   9.2501   9.2767   9.4288   9.5098   9.5953
     9.6424   9.6723   9.8008   9.9116  10.1949  10.2084  10.3043  10.3818
    10.4572  10.5648  10.5683  10.5809  10.6072  10.6578  10.6672  10.9100
    10.9661  11.0597  11.1384  11.2196  11.2813  11.3055  11.4244  11.5623
    11.5724  11.5769  11.8826  12.0164  12.0314  12.1813  12.2921  12.3727
    12.4709  12.5364  12.6540  12.7612  12.7965  12.9503  13.0297  13.0912
    13.1358  13.1713  13.1745  13.2720  13.3992  13.4149  13.5094  13.5855
    13.5985  13.7309  13.8514  13.8722  13.8966  13.9945  14.0613  14.1345
    14.1414  14.1709  14.2963  14.3047  14.3860  14.4285  14.5276  14.5540
    14.5570  14.6048  14.8937

          k = 0.3750 0.1443 0.0000 ( 55097 PWs)   bands (ev):

     0.0044   0.3250   0.7649   0.7925   1.0402   1.0802   1.3257   1.3421
     1.4110   1.4343   1.6408   1.6658   1.8476   1.8861   1.8929   1.9332
     1.9967   2.0400   2.0445   2.0490   2.1097   2.1636   2.1800   2.1981
     2.2131   2.2222   2.2322   2.2387   2.2536   2.3215   2.3722   2.3756
     2.3834   2.3942   2.4171   2.4660   2.4678   2.4960   2.5112   2.5288
     2.5442   2.5600   2.5709   2.5932   2.6086   2.6277   2.6333   2.6571
     2.6865   2.6872   2.6938   2.6985   2.7138   2.7331   2.7414   2.7475
     2.7636   2.8054   2.8088   2.8104   2.8461   2.8545   2.8814   2.9026
     2.9241   2.9284   2.9395   2.9424   2.9486   2.9533   2.9571   2.9807
     3.0350   3.0614   3.0715   3.1121   3.1220   3.1265   3.1646   3.1754
     3.1934   3.2017   3.2080   3.2243   3.2349   3.2639   3.2742   3.2754
     3.2780   3.2909   3.2916   3.3120   3.3143   3.3201   3.3233   3.3269
     3.3510   3.3760   3.3938   3.3961   3.4242   3.4607   3.4610   3.4657
     3.4970   3.5009   3.5142   3.5233   3.5331   3.5376   3.5479   3.5583
     3.5745   3.5791   3.5924   3.5949   3.6157   3.6270   3.6323   3.6425
     3.6456   3.7011   3.7018   3.7046   3.7156   3.7411   3.7502   3.7746
     3.8005   3.8070   3.8460   3.8546   3.8780   3.8986   3.8989   3.9004
     3.9095   3.9142   3.9196   3.9453   3.9649   3.9696   3.9865   3.9929
[...]
     4.9106   4.9275   4.9353   4.9413   4.9564   4.9620   4.9724   4.9729
     4.9837   4.9989   5.0192   5.0298   5.0376   5.0464   5.0565   5.0632
     5.0695   5.0882   5.1354   5.1385   5.1418   5.1520   5.1604   5.1817
     5.1927   5.2008   5.2160   5.2245   5.2316   5.2382   5.2385   5.2497
     5.2622   5.2650   5.2688   5.2854   5.2873   5.2992   5.3199   5.3219
     5.3521   5.3538   5.3789   5.3898   5.4060   5.4140   5.4167   5.4186
     5.4241   5.4502   5.4519   5.4534   5.4783   5.4895   5.5110   5.5350
     5.5426   5.5470   5.5556   5.5768   5.5768   5.5999   5.6225   5.6268
     5.6566   5.6589   5.6605   5.6749   5.6757   5.6970   5.6997   5.7093
     5.7103   5.7245   5.7286   5.7469   5.7606   5.8049   5.8073   5.8212
     5.8240   5.8545   5.8649   5.8667   5.8823   5.8888   5.8963   5.9164
     5.9394   5.9405   5.9425   5.9573   5.9590   5.9805   5.9824   5.9953
     5.9984   6.0109   6.0283   6.0514   6.0527   6.0657   6.0666   6.0701
     6.0724   6.0857   6.0968   6.1008   6.1080   6.1222   6.1292   6.1424
     6.1519   6.1541   6.1622   6.1673   6.1697   6.1781   6.1960   6.2137
     6.2141   6.2209   6.2210   6.2348   6.2390   6.2596   6.2741   6.2766
     6.2824   6.2838   6.2944   6.3192   6.3228   6.3284   6.3459   6.3471
     6.3744   6.3751   6.3795   6.3879   6.3961   6.4043   6.4056   6.4091
     6.4345   6.4632   6.4699   6.4866   6.5192   6.5290   6.5604   6.5807
     6.5843   6.5916   6.5939   6.6047   6.6689   6.7171   6.7854   6.7994
     6.8274   6.8683   6.9978   7.0629   7.1344   7.2655   7.3380   7.3796
     7.6220   7.6911   7.8919   8.0544   8.0607   8.0795   8.4061   8.4152
     8.7453   8.9185   8.9280   8.9783   9.2564   9.2890   9.5703   9.6859
     9.8606   9.8719   9.8789   9.9775  10.0900  10.2000  10.2071  10.3143
    10.3641  10.4599  10.6742  10.7058  10.7284  10.7897  10.8917  10.9388
    10.9853  11.0332  11.1306  11.2359  11.2425  11.2823  11.5721  11.6063
    11.7215  11.7566  11.8985  11.9043  12.2160  12.2255  12.3719  12.4558
    12.5405  12.6016  12.7296  12.7433  12.8884  13.0226  13.0518  13.0806
    13.1577  13.2148  13.3230  13.3387  13.4646  13.4681  13.5776  13.8357
    13.8427  13.8817  13.8881  13.9140  14.1441  14.1702  14.2823  14.4028
    14.4100  14.5044  14.5543  14.6909  14.7348  14.8454  14.8643  14.9128
    14.9220  14.9379  15.0189

          k = 0.4583 0.1443 0.0000 ( 55107 PWs)   bands (ev):

     0.3333   0.6380   0.6988   0.9788   1.0132   1.0803   1.2412   1.2640
     1.3800   1.4720   1.6002   1.6100   1.7608   1.8465   1.9944   2.0411
     2.0651   2.0786   2.0843   2.1755   2.2537   2.2539   2.2715   2.2722
     2.2974   2.3061   2.3272   2.3591   2.3683   2.4028   2.4253   2.4336
     2.4503   2.4614   2.4715   2.4807   2.4998   2.5020   2.5440   2.5455
     2.5733   2.5949   2.5974   2.6220   2.6594   2.6747   2.6772   2.6811
     2.6945   2.7227   2.7599   2.7748   2.7762   2.7802   2.7973   2.8074
     2.8115   2.8325   2.8378   2.8538   2.8596   2.8697   2.8874   2.9300
     2.9323   2.9383   2.9463   2.9790   2.9961   3.0143   3.0356   3.0692
     3.0796   3.0824   3.0844   3.1258   3.1369   3.1603   3.1783   3.1825
     3.2007   3.2246   3.2393   3.2422   3.2676   3.2740   3.2741   3.2746
     3.3072   3.3116   3.3144   3.3282   3.3344   3.3392   3.3603   3.3674
     3.3840   3.3846   3.4120   3.4218   3.4238   3.4348   3.4608   3.4617
     3.4700   3.4764   3.4793   3.4960   3.5087   3.5316   3.5336   3.5473
     3.5512   3.5557   3.5685   3.5878   3.6221   3.6230   3.6273   3.6413
     3.6611   3.6750   3.6914   3.6998   3.7078   3.7385   3.7511   3.7627
     3.7708   3.7795   3.8157   3.8160   3.8362   3.8387   3.8535   3.8623
     3.8701   3.8763   3.8973   3.9149   3.9443   3.9453   3.9551   3.9590
     3.9937   3.9947   3.9988   4.0082   4.0248   4.0266   4.0547   4.0723
     4.0728   4.0820   4.1114   4.1158   4.1352   4.1402   4.1455   4.1462
     4.1517   4.1608   4.1687   4.1761   4.1854   4.1981   4.2031   4.2062
     4.2131   4.2164   4.2229   4.2261   4.2289   4.2326   4.2458   4.2464
     4.2669   4.2763   4.2777   4.2880   4.2985   4.2987   4.3105   4.3179
     4.3305   4.3689   4.3700   4.3805   4.3805   4.3887   4.4332   4.4538
     4.4643   4.4660   4.4719   4.4882   4.4946   4.5212   4.5235   4.5756
     4.5985   4.6014   4.6137   4.6409   4.6535   4.6546   4.6600   4.6771
     4.6838   4.6984   4.7063   4.7096   4.7194   4.7419   4.7589   4.7697
     4.7757   4.8297   4.8451   4.8508   4.8596   4.8665   4.8750   4.8758
     4.8995   4.9085   4.9256   4.9276   4.9486   4.9633   4.9655   4.9865
     4.9893   4.9924   5.0060   5.0080   5.0293   5.0354   5.0418   5.0659
     5.0719   5.0993   5.1150   5.1158   5.1303   5.1463   5.1482   5.1488
     5.1583   5.1941   5.1953   5.2023   5.2106   5.2237   5.2263   5.2340
     5.2418   5.2458   5.2524   5.2610   5.2833   5.2913   5.3124   5.3205
     5.3243   5.3284   5.3304   5.3401   5.3554   5.3615   5.3865   5.4081
     5.4120   5.4192   5.4258   5.4269   5.4284   5.4375   5.4489   5.4771
     5.4822   5.4959   5.5097   5.5210   5.5355   5.5456   5.5523   5.5848
     5.5928   5.5984   5.6082   5.6214   5.6316   5.6323   5.6363   5.6381
     5.6646   5.6741   5.6910   5.6934   5.6941   5.7056   5.7214   5.7354
     5.7449   5.7454   5.7679   5.7720   5.7736   5.7856   5.7966   5.8188
     5.8218   5.8355   5.8689   5.8718   5.9136   5.9256   5.9279   5.9435
     5.9461   5.9474   5.9554   5.9748   5.9818   5.9820   6.0101   6.0161
     6.0245   6.0272   6.0326   6.0713   6.0915   6.1034   6.1077   6.1127
     6.1341   6.1451   6.1593   6.1620   6.1760   6.1901   6.2045   6.2050
     6.2051   6.2078   6.2162   6.2564   6.2600   6.2750   6.2816   6.2831
     6.2863   6.2970   6.2972   6.3195   6.3425   6.3543   6.3647   6.3788
     6.3890   6.3945   6.4001   6.4470   6.4536   6.4601   6.4612   6.4890
     6.4932   6.4983   6.5167   6.5402   6.5431   6.5992   6.6068   6.6189
     6.6297   6.6424   6.7424   6.8478   6.8541   6.9993   7.0642   7.0846
     7.1194   7.2421   7.3239   7.3245   7.3414   7.4300   7.5134   7.5805
     7.7311   7.8220   8.0152   8.1139   8.2147   8.2561   8.4528   8.5499
     8.7954   8.8000   8.9361   9.0778   9.0921   9.1198   9.1200   9.2793
     9.4350   9.4445   9.4481   9.6588   9.8411   9.9825  10.0122  10.1377
    10.1753  10.4071  10.4494  10.4915  10.6180  10.7169  10.9127  11.1102
    11.2247  11.3089  11.3203  11.4991  11.5990  11.6359  11.7603  11.7672
    11.8739  12.0288  12.0816  12.1876  12.2589  12.3867  12.4922  12.5807
    12.6147  12.7646  12.7787  12.9111  12.9157  13.0213  13.1302  13.1927
    13.2288  13.2737  13.3033  13.4209  13.4524  13.6118  13.6770  13.7415
    13.7508  13.8643  14.0060  14.0381  14.1162  14.1443  14.1998  14.2522
    14.3431  14.4552  14.4662  14.6086  14.6245  14.6716  14.7223  14.7735
    14.8782  14.8906  15.0175

          k = 0.4583 0.2406 0.0000 ( 55107 PWs)   bands (ev):

     0.4901   0.7196   0.7834   0.8245   0.9952   1.0080   1.0910   1.2051
     1.2570   1.3854   1.4638   1.5912   1.6939   1.8291   1.8813   1.9455
     2.1292   2.2125   2.2303   2.2343   2.2907   2.3020   2.3255   2.3295
     2.3450   2.3581   2.3766   2.3992   2.4064   2.4123   2.4231   2.4264
     2.4283   2.4604   2.4839   2.4858   2.5136   2.5377   2.5648   2.5757
     2.5801   2.5881   2.5983   2.5986   2.6208   2.6352   2.6614   2.6942
     2.7150   2.7167   2.7268   2.7430   2.7451   2.7602   2.7758   2.7810
     2.8067   2.8148   2.8345   2.8372   2.8556   2.8596   2.8610   2.9118
     2.9197   2.9374   2.9569   3.0113   3.0221   3.0566   3.0677   3.0805
     3.0828   3.0852   3.1110   3.1308   3.1430   3.1803   3.1966   3.1989
     3.2090   3.2124   3.2233   3.2250   3.2283   3.2629   3.2674   3.3166
     3.3245   3.3292   3.3476   3.3607   3.3733   3.3733   3.3759   3.4096
     3.4139   3.4348   3.4389   3.4390   3.4644   3.4732   3.4749   3.4861
     3.4963   3.5063   3.5150   3.5187   3.5382   3.5390   3.5580   3.5710
     3.5765   3.5921   3.5983   3.6017   3.6211   3.6245   3.6253   3.6260
     3.6621   3.6934   3.6962   3.7152   3.7190   3.7210   3.7305   3.7344
     3.7458   3.7770   3.7904   3.8107   3.8253   3.8493   3.8557   3.8751
     3.9044   3.9165   3.9226   3.9246   3.9308   3.9784   3.9924   4.0057
     4.0126   4.0283   4.0391   4.0392   4.0686   4.0858   4.0913   4.0968
     4.0979   4.1142   4.1203   4.1296   4.1351   4.1425   4.1624   4.1639
     4.1649   4.1711   4.1783   4.1812   4.1972   4.1987   4.1995   4.1998
     4.2102   4.2141   4.2187   4.2309   4.2317   4.2317   4.2374   4.2389
     4.2503   4.2579   4.2678   4.2784   4.2827   4.3153   4.3280   4.3447
     4.3561   4.3626   4.3720   4.3895   4.4066   4.4267   4.4296   4.4344
     4.4626   4.4631   4.4842   4.4911   4.5224   4.5406   4.5500   4.5660
     4.5770   4.5908   4.6078   4.6397   4.6476   4.6522   4.6668   4.6845
     4.6860   4.6992   4.7037   4.7446   4.7456   4.7649   4.7789   4.7974
     4.8058   4.8114   4.8235   4.8281   4.8300   4.8586   4.8722   4.8739
     4.8800   4.8859   4.8884   4.8946   4.9184   4.9464   4.9534   4.9648
     4.9813   4.9912   4.9930   5.0146   5.0229   5.0341   5.0424   5.0587
     5.0607   5.0733   5.0783   5.0865   5.1212   5.1335   5.1353   5.1486
     5.1513   5.1554   5.1611   5.1618   5.1854   5.1901   5.1908   5.2043
     5.2071   5.2221   5.2284   5.2321   5.2392   5.2425   5.2462   5.2586
     5.2646   5.2835   5.2886   5.3118   5.3159   5.3274   5.3310   5.3446
     5.3554   5.3762   5.3806   5.3951   5.3952   5.3985   5.4130   5.4318
     5.4341   5.4459   5.4560   5.4575   5.4592   5.4743   5.4745   5.4949
     5.5089   5.5185   5.5320   5.5358   5.5553   5.5643   5.5678   5.5770
     5.5934   5.6045   5.6215   5.6447   5.6450   5.6471   5.6578   5.6787
     5.6856   5.7120   5.7296   5.7427   5.7490   5.7625   5.7690   5.7723
     5.7761   5.7979   5.8070   5.8105   5.8323   5.8579   5.8595   5.8760
     5.9019   5.9103   5.9460   5.9465   5.9578   5.9626   5.9684   5.9768
     6.0525   6.0560   6.0729   6.0731   6.0886   6.1066   6.1073   6.1077
     6.1223   6.1389   6.1397   6.1496   6.1570   6.1649   6.1816   6.1854
     6.2137   6.2188   6.2333   6.2467   6.2975   6.3309   6.3374   6.3453
     6.3622   6.3650   6.3764   6.3833   6.3851   6.3865   6.3943   6.4091
     6.4162   6.4483   6.4526   6.4778   6.4779   6.4783   6.5014   6.5172
     6.5363   6.5465   6.5480   6.5652   6.6057   6.6345   6.6368   6.6370
     6.6816   6.6915   6.6968   6.7462   6.9339   7.0625   7.1468   7.2575
     7.5253   7.5293   7.5832   7.6862   7.8060   7.8155   7.8493   7.8703
     8.0011   8.1133   8.1924   8.2136   8.2980   8.3494   8.4064   8.4240
     8.5149   8.6485   8.6488   8.6701   8.7882   8.9664   9.0637   9.1464
     9.2311   9.2985   9.3146   9.4963   9.5762   9.6972   9.8241  10.0040
    10.2244  10.2643  10.2981  10.3937  10.5520  10.5644  10.6809  10.9349
    11.0861  11.2965  11.4508  11.5487  11.6655  11.8309  11.9311  12.0006
    12.0633  12.2786  12.3150  12.3561  12.7415  12.7791  12.8733  12.8933
    12.9051  13.0223  13.0936  13.1006  13.1794  13.2270  13.2490  13.2590
    13.2945  13.3788  13.4403  13.4714  13.5037  13.5235  13.7596  13.7657
    13.8142  13.9331  13.9336  13.9393  14.0245  14.0485  14.0697  14.1267
    14.1607  14.2309  14.2429  14.3214  14.3738  14.4006  14.4227  14.5569
    14.6064  14.7682  14.8795

     the Fermi energy is     8.2691 ev

!    total energy              =   -7346.35669851 Ry
     estimated scf accuracy    <       0.00000079 Ry
     smearing contrib. (-TS)   =       0.09471303 Ry
     internal energy E=F+TS    =   -7346.45141154 Ry

     The total energy is F=E-TS. E is the sum of the following terms:
     one-electron contribution =  -33899.10991821 Ry
     hartree contribution      =   17698.23517552 Ry
     xc contribution           =   -3551.00868151 Ry
     ewald contribution        =   12405.43201266 Ry

     convergence has been achieved in  21 iterations

     negative rho (up, down):  1.957E+00 0.000E+00

     Forces acting on atoms (cartesian axes, Ry/au):

     atom    1 type  1   force =     0.00000000   -0.00165307    0.02679421
     atom    2 type  1   force =     0.00000000   -0.00165370    0.02679274
     atom    3 type  1   force =     0.00000000   -0.00165373    0.02679365
     atom    4 type  1   force =     0.00000000   -0.00165297    0.02679306
     atom    5 type  1   force =     0.00000007    0.00338453   -0.01640483
     atom    6 type  1   force =    -0.00000007    0.00338453   -0.01640483
     atom    7 type  1   force =    -0.00000007    0.00338437   -0.01640487
     atom    8 type  1   force =     0.00000007    0.00338437   -0.01640487
     atom    9 type  1   force =     0.00000000   -0.00163092   -0.00950737
     atom   10 type  1   force =     0.00000000   -0.00163070   -0.00950763
     atom   11 type  1   force =     0.00000000   -0.00163064   -0.00950731
     atom   12 type  1   force =     0.00000000   -0.00163030   -0.00950747
     atom   13 type  1   force =     0.00000000    0.00056310   -0.00376947
     atom   14 type  1   force =     0.00000000    0.00056327   -0.00376930
     atom   15 type  1   force =     0.00000003   -0.00053617    0.00466329
     atom   16 type  1   force =    -0.00000003   -0.00053617    0.00466329
     atom   17 type  1   force =     0.00000000    0.00056340   -0.00376920
     atom   18 type  1   force =     0.00000000    0.00056348   -0.00376916
     atom   19 type  1   force =    -0.00000004   -0.00053629    0.00466319
     atom   20 type  1   force =     0.00000004   -0.00053629    0.00466319
     atom   21 type  1   force =     0.00000000    0.00028183   -0.00069771
     atom   22 type  1   force =     0.00000000    0.00028178   -0.00069758
     atom   23 type  1   force =     0.00000004   -0.00044603   -0.00046605
     atom   24 type  1   force =     0.00000000    0.00028158   -0.00069773
     atom   25 type  1   force =     0.00000001   -0.00044610   -0.00046603
     atom   26 type  1   force =    -0.00000004   -0.00044603   -0.00046605
     atom   27 type  1   force =    -0.00000001   -0.00044610   -0.00046603
     atom   28 type  1   force =     0.00000000    0.00028173   -0.00069763
     atom   29 type  1   force =     0.00000002   -0.00018402    0.00041614
     atom   30 type  1   force =     0.00000000    0.00019520   -0.00054651
     atom   31 type  1   force =     0.00000005   -0.00018421    0.00041615
     atom   32 type  1   force =    -0.00000005   -0.00018421    0.00041615
     atom   33 type  1   force =    -0.00000002   -0.00018402    0.00041614
     atom   34 type  1   force =     0.00000000    0.00019512   -0.00054648
     atom   35 type  1   force =     0.00000000    0.00019540   -0.00054646
     atom   36 type  1   force =     0.00000000    0.00019530   -0.00054634
     atom   37 type  1   force =     0.00000000    0.00018589   -0.00041935
     atom   38 type  1   force =     0.00000000    0.00018592   -0.00041937
     atom   39 type  1   force =    -0.00000009   -0.00019464    0.00054542
     atom   40 type  1   force =     0.00000009   -0.00019464    0.00054542
     atom   41 type  1   force =     0.00000005   -0.00019464    0.00054527
     atom   42 type  1   force =     0.00000000    0.00018595   -0.00041935
     atom   43 type  1   force =     0.00000000    0.00018601   -0.00041939
     atom   44 type  1   force =    -0.00000005   -0.00019464    0.00054527
     atom   45 type  1   force =     0.00000000    0.00044677    0.00047069
     atom   46 type  1   force =     0.00000000    0.00044662    0.00047045
     atom   47 type  1   force =     0.00000000    0.00044684    0.00047066
     atom   48 type  1   force =     0.00000000    0.00044653    0.00047068
     atom   49 type  1   force =     0.00000005   -0.00028113    0.00069977
     atom   50 type  1   force =    -0.00000005   -0.00028113    0.00069977
     atom   51 type  1   force =    -0.00000007   -0.00028111    0.00069972
     atom   52 type  1   force =     0.00000007   -0.00028111    0.00069972
     atom   53 type  1   force =     0.00000000    0.00053731   -0.00466803
     atom   54 type  1   force =     0.00000006   -0.00056265    0.00376142
     atom   55 type  1   force =     0.00000013   -0.00056264    0.00376125
     atom   56 type  1   force =    -0.00000006   -0.00056265    0.00376142
     atom   57 type  1   force =    -0.00000013   -0.00056264    0.00376125
     atom   58 type  1   force =     0.00000000    0.00053687   -0.00466795
     atom   59 type  1   force =     0.00000000    0.00053717   -0.00466786
     atom   60 type  1   force =     0.00000000    0.00053702   -0.00466788
     atom   61 type  1   force =     0.00000004    0.00162934    0.00950643
     atom   62 type  1   force =     0.00000000   -0.00338278    0.01640264
     atom   63 type  1   force =     0.00000000   -0.00338296    0.01640266
     atom   64 type  1   force =     0.00000000   -0.00338290    0.01640289
     atom   65 type  1   force =     0.00000000   -0.00338270    0.01640216
     atom   66 type  1   force =    -0.00000018    0.00162891    0.00950635
     atom   67 type  1   force =    -0.00000004    0.00162934    0.00950643
     atom   68 type  1   force =     0.00000018    0.00162891    0.00950635
     atom   69 type  1   force =    -0.00000010    0.00164845   -0.02677974
     atom   70 type  1   force =     0.00000014    0.00164768   -0.02677986
     atom   71 type  1   force =     0.00000010    0.00164845   -0.02677974
     atom   72 type  1   force =    -0.00000014    0.00164768   -0.02677986

     Total force =     0.095159     Total SCF correction =     0.004125
 
     init_run     :    102.40s CPU     13.67s WALL (       1 calls)
     electrons    :   7081.41s CPU    904.58s WALL (       1 calls)
     forces       :     30.98s CPU      3.99s WALL (       1 calls)

     Called by init_run:
     wfcinit      :    100.34s CPU     12.90s WALL (       1 calls)
     potinit      :      0.64s CPU      0.11s WALL (       1 calls)
     hinit0       :      0.71s CPU      0.17s WALL (       1 calls)

     Called by electrons:
     c_bands      :   5836.21s CPU    743.77s WALL (      22 calls)
     sum_band     :   1227.60s CPU    158.16s WALL (      22 calls)
     v_of_rho     :      7.67s CPU      1.03s WALL (      22 calls)
     newd         :      7.32s CPU      1.33s WALL (      22 calls)
     mix_rho      :      1.81s CPU      0.23s WALL (      22 calls)

     Called by c_bands:
     init_us_2    :      7.22s CPU      0.92s WALL (     828 calls)
     cegterg      :   5763.26s CPU    734.48s WALL (     396 calls)

     Called by *egterg:
     cdiaghg      :   2384.55s CPU    302.76s WALL (    2693 calls)
     h_psi        :   2537.37s CPU    324.74s WALL (    2729 calls)
     s_psi        :    108.26s CPU     13.61s WALL (    2729 calls)
     g_psi        :      1.42s CPU      0.18s WALL (    2315 calls)

     Called by h_psi:
     h_psi:calbec :    217.79s CPU     27.90s WALL (    2729 calls)
     vloc_psi     :   2204.71s CPU    282.29s WALL (    2729 calls)
     add_vuspsi   :    112.10s CPU     14.18s WALL (    2729 calls)

     General routines
     calbec       :    332.16s CPU     42.61s WALL (    3197 calls)
     fft          :      7.97s CPU      1.04s WALL (     296 calls)
     ffts         :      1.85s CPU      0.24s WALL (      44 calls)
     fftw         :   3201.36s CPU    408.71s WALL ( 1033146 calls)
     interpolate  :      0.78s CPU      0.11s WALL (      22 calls)
 
     Parallel routines
     fft_scatt_xy :    136.74s CPU     18.60s WALL ( 1033486 calls)
     fft_scatt_yz :   2501.56s CPU    322.29s WALL ( 1033486 calls)
 
     PWSCF        :      2h 0m CPU  15m22.65s WALL

 
   This run was terminated on:   2:54: 9   8Sep2021            

=------------------------------------------------------------------------------=
   JOB DONE.
=------------------------------------------------------------------------------=
