
     Program PWSCF v.6.6 starts on  8Sep2021 at  5:20:47 

     This program is part of the open-source Quantum ESPRESSO suite
     for quantum simulation of materials; please cite
         "P. Giannozzi et al., J. Phys.:Condens. Matter 21 395502 (2009);
         "P. Giannozzi et al., J. Phys.:Condens. Matter 29 465901 (2017);
          URL http://www.quantum-espresso.org", 
     in publications or presentations arising from this work. More details at
     http://www.quantum-espresso.org/quote

     Parallel version (MPI & OpenMP), running on      96 processor cores
     Number of MPI processes:                48
     Threads/MPI process:                     2

     MPI processes distributed on     2 nodes
     K-points division:     npool     =       2
     R & G space division:  proc/nbgrp/npool/nimage =      24
     Fft bands division:     nmany     =       1
     Reading input from ../inputs/input_ausurf_36

     Current dimensions of program PWSCF are:
     Max number of different atomic species (ntypx) = 10
     Max number of k-points (npk) =  40000
     Max angular momentum in pseudopotentials (lmaxx) =  3

     Subspace diagonalization in iterative solution of the eigenvalue problem:
     one sub-group per band group will be used
     ELPA distributed-memory algorithm (size of sub-group:  4*  4 procs)

     Found symmetry operation: I + ( -0.5000  0.0000  0.0000)
     This is a supercell, fractional translations are disabled
 
     Parallelization info
     --------------------
     sticks:   dense  smooth     PW     G-vecs:    dense   smooth      PW
     Min         124      56     15                29678     9154    1351
     Max         125      57     16                29699     9189    1380
     Sum        2995    1367    379               712611   220327   32927
 

     Title: 
      Ausurf                                                                    


     bravais-lattice index     =            8
     lattice parameter (alat)  =      11.1494  a.u.
     unit-cell volume          =    6444.4936 (a.u.)^3
     number of atoms/cell      =           36
     number of atomic types    =            1
     number of electrons       =       396.00
     number of Kohn-Sham states=          238
     kinetic-energy cutoff     =      40.0000  Ry
     charge density cutoff     =     350.0000  Ry
     convergence threshold     =      1.0E-06
     mixing beta               =       0.7000
     number of iterations used =            8  TF        mixing
     Exchange-correlation=  SLA  PW   PBE  PBE
                           (   1   4   3   4   0   0   0)

     celldm(1)=  11.149384  celldm(2)=   0.866025  celldm(3)=   5.369150
     celldm(4)=   0.000000  celldm(5)=   0.000000  celldm(6)=   0.000000

     crystal axes: (cart. coord. in units of alat)
               a(1) = (   1.000000   0.000000   0.000000 )  
               a(2) = (   0.000000   0.866025   0.000000 )  
               a(3) = (   0.000000   0.000000   5.369150 )  

     reciprocal axes: (cart. coord. in units 2 pi/alat)
               b(1) = (  1.000000  0.000000  0.000000 )  
               b(2) = (  0.000000  1.154701  0.000000 )  
               b(3) = (  0.000000  0.000000  0.186249 )  


     PseudoPot. # 1 for Au read from file:
     /marconi/home/userexternal/czeni000/dft_src/pseudo/Au.pbe-nd-van.UPF
     MD5 check sum: deb5c07af10777505a79e28f5b4b4115
     Pseudo is Ultrasoft + core correction, Zval = 11.0
     Generated by new atomic code, or converted to UPF format
     Using radial grid of  985 points,  3 beta functions with: 
                l(1) =   1
                l(2) =   2
                l(3) =   2
     Q(r) pseudized with  8 coefficients,  rinner =    1.100   1.100   1.100
                                                       1.100   1.100

     atomic species   valence    mass     pseudopotential
        Au            11.00   196.96000     Au( 1.00)

      2 Sym. Ops. (no inversion) found



   Cartesian axes

     site n.     atom                  positions (alat units)
         1           Au  tau(   1) = (   0.0000000   0.0000000   0.0000000  )
         2           Au  tau(   2) = (   0.5000000   0.0000000   0.0000000  )
         3           Au  tau(   3) = (   0.2500000   0.1443376   0.4082483  )
         4           Au  tau(   4) = (   0.7500000   0.1443376   0.4082483  )
         5           Au  tau(   5) = (   0.5000000   0.5773503   0.4082483  )
         6           Au  tau(   6) = (   1.0000000   0.5773503   0.4082483  )
         7           Au  tau(   7) = (   0.5000000   0.2886751   0.8164966  )
         8           Au  tau(   8) = (   1.0000000   0.2886751   0.8164966  )
         9           Au  tau(   9) = (   0.2500000   0.7216878   0.8164966  )
        10           Au  tau(  10) = (   0.7500000   0.7216878   0.8164966  )
        11           Au  tau(  11) = (   0.0000000   0.0000000   1.2247449  )
        12           Au  tau(  12) = (   0.5000000   0.0000000   1.2247449  )
        13           Au  tau(  13) = (   0.2500000   0.4330127   1.2247449  )
        14           Au  tau(  14) = (   0.7500000   0.4330127   1.2247449  )
        15           Au  tau(  15) = (   1.0000000   0.5773503   1.6329932  )
        16           Au  tau(  16) = (   0.2500000   0.1443376   1.6329932  )
        17           Au  tau(  17) = (   0.7500000   0.1443376   1.6329932  )
        18           Au  tau(  18) = (   0.5000000   0.5773503   1.6329932  )
        19           Au  tau(  19) = (   0.5000000   0.2886751   2.0412415  )
        20           Au  tau(  20) = (   1.0000000   0.2886751   2.0412415  )
        21           Au  tau(  21) = (   0.2500000   0.7216878   2.0412415  )
        22           Au  tau(  22) = (   0.7500000   0.7216878   2.0412415  )
        23           Au  tau(  23) = (   0.0000000   0.0000000   2.4494897  )
        24           Au  tau(  24) = (   0.5000000   0.0000000   2.4494897  )
        25           Au  tau(  25) = (   0.2500000   0.4330127   2.4494897  )
        26           Au  tau(  26) = (   0.7500000   0.4330127   2.4494897  )
        27           Au  tau(  27) = (   0.2500000   0.1443376   2.8577380  )
        28           Au  tau(  28) = (   0.7500000   0.1443376   2.8577380  )
        29           Au  tau(  29) = (   0.5000000   0.5773503   2.8577380  )
        30           Au  tau(  30) = (   1.0000000   0.5773503   2.8577380  )
        31           Au  tau(  31) = (   0.5000000   0.2886751   3.2659863  )
        32           Au  tau(  32) = (   1.0000000   0.2886751   3.2659863  )
        33           Au  tau(  33) = (   0.2500000   0.7216878   3.2659863  )
        34           Au  tau(  34) = (   0.7500000   0.7216878   3.2659863  )
        35           Au  tau(  35) = (   0.2500000   0.4330127   3.6742346  )
        36           Au  tau(  36) = (   0.7500000   0.4330127   3.6742346  )

     number of k points=    36  Marzari-Vanderbilt smearing, width (Ry)=  0.0500
                       cart. coord. in units 2pi/alat
        k(    1) = (   0.0416667   0.0481125   0.0000000), wk =   0.0555556
        k(    2) = (   0.0416667   0.1443376   0.0000000), wk =   0.0555556
        k(    3) = (   0.0416667   0.2405626   0.0000000), wk =   0.0555556
        k(    4) = (   0.0416667   0.3367877   0.0000000), wk =   0.0555556
        k(    5) = (   0.0416667   0.4330127   0.0000000), wk =   0.0555556
        k(    6) = (   0.0416667   0.5292377   0.0000000), wk =   0.0555556
        k(    7) = (   0.1250000   0.0481125   0.0000000), wk =   0.0555556
        k(    8) = (   0.1250000   0.1443376   0.0000000), wk =   0.0555556
        k(    9) = (   0.1250000   0.2405626   0.0000000), wk =   0.0555556
        k(   10) = (   0.1250000   0.3367877   0.0000000), wk =   0.0555556
        k(   11) = (   0.1250000   0.4330127   0.0000000), wk =   0.0555556
        k(   12) = (   0.1250000   0.5292377   0.0000000), wk =   0.0555556
        k(   13) = (   0.2083333   0.0481125   0.0000000), wk =   0.0555556
        k(   14) = (   0.2083333   0.1443376   0.0000000), wk =   0.0555556
        k(   15) = (   0.2083333   0.2405626   0.0000000), wk =   0.0555556
        k(   16) = (   0.2083333   0.3367877   0.0000000), wk =   0.0555556
        k(   17) = (   0.2083333   0.4330127   0.0000000), wk =   0.0555556
        k(   18) = (   0.2083333   0.5292377   0.0000000), wk =   0.0555556
        k(   19) = (   0.2916667   0.0481125   0.0000000), wk =   0.0555556
        k(   20) = (   0.2916667   0.1443376   0.0000000), wk =   0.0555556
        k(   21) = (   0.2916667   0.2405626   0.0000000), wk =   0.0555556
        k(   22) = (   0.2916667   0.3367877   0.0000000), wk =   0.0555556
        k(   23) = (   0.2916667   0.4330127   0.0000000), wk =   0.0555556
        k(   24) = (   0.2916667   0.5292377   0.0000000), wk =   0.0555556
        k(   25) = (   0.3750000   0.0481125   0.0000000), wk =   0.0555556
        k(   26) = (   0.3750000   0.1443376   0.0000000), wk =   0.0555556
        k(   27) = (   0.3750000   0.2405626   0.0000000), wk =   0.0555556
        k(   28) = (   0.3750000   0.3367877   0.0000000), wk =   0.0555556
        k(   29) = (   0.3750000   0.4330127   0.0000000), wk =   0.0555556
        k(   30) = (   0.3750000   0.5292377   0.0000000), wk =   0.0555556
        k(   31) = (   0.4583333   0.0481125   0.0000000), wk =   0.0555556
        k(   32) = (   0.4583333   0.1443376   0.0000000), wk =   0.0555556
        k(   33) = (   0.4583333   0.2405626   0.0000000), wk =   0.0555556
        k(   34) = (   0.4583333   0.3367877   0.0000000), wk =   0.0555556
        k(   35) = (   0.4583333   0.4330127   0.0000000), wk =   0.0555556
        k(   36) = (   0.4583333   0.5292377   0.0000000), wk =   0.0555556

     Dense  grid:   712611 G-vectors     FFT dimensions: (  72,  60, 360)

     Smooth grid:   220327 G-vectors     FFT dimensions: (  45,  40, 243)

     Estimated max dynamical RAM per process >     152.73 MB

     Estimated total dynamical RAM >       7.16 GB

     Initial potential from superposition of free atoms

     starting charge  395.58197, renormalised to  396.00000

     negative rho (up, down):  9.582E-01 0.000E+00
     Starting wfcs are  324 randomized atomic wfcs

     total cpu time spent up to now is        6.7 secs

     Self-consistent Calculation

     iteration #  1     ecut=    40.00 Ry     beta= 0.70
     Davidson diagonalization with overlap
     ethr =  1.00E-02,  avg # of iterations =  2.6

     Threshold (ethr) on eigenvalues was too large:
     Diagonalizing with lowered threshold

     Davidson diagonalization with overlap
     ethr =  3.35E-04,  avg # of iterations =  2.6

     negative rho (up, down):  9.101E-01 0.000E+00

     total cpu time spent up to now is       33.4 secs

     total energy              =   -3673.13694193 Ry
     estimated scf accuracy    <       1.57348157 Ry

     iteration #  2     ecut=    40.00 Ry     beta= 0.70
     Davidson diagonalization with overlap
     ethr =  3.97E-04,  avg # of iterations =  1.0

     negative rho (up, down):  9.629E-01 0.000E+00

     total cpu time spent up to now is       44.0 secs

     total energy              =   -3673.20635188 Ry
     estimated scf accuracy    <       0.70296874 Ry

     iteration #  3     ecut=    40.00 Ry     beta= 0.70
     Davidson diagonalization with overlap
     ethr =  1.78E-04,  avg # of iterations =  2.7

     negative rho (up, down):  1.015E+00 0.000E+00

     total cpu time spent up to now is       56.7 secs

     total energy              =   -3673.20198989 Ry
     estimated scf accuracy    <       0.41083365 Ry

     iteration #  4     ecut=    40.00 Ry     beta= 0.70
     Davidson diagonalization with overlap
     ethr =  1.04E-04,  avg # of iterations =  5.3

     negative rho (up, down):  1.013E+00 0.000E+00

     total cpu time spent up to now is       71.0 secs

     total energy              =   -3673.19544538 Ry
     estimated scf accuracy    <       0.20238304 Ry

     iteration #  5     ecut=    40.00 Ry     beta= 0.70
     Davidson diagonalization with overlap
     ethr =  5.11E-05,  avg # of iterations =  7.6

     negative rho (up, down):  9.872E-01 0.000E+00

     total cpu time spent up to now is       86.6 secs

     total energy              =   -3673.19240379 Ry
     estimated scf accuracy    <       0.12432641 Ry

     iteration #  6     ecut=    40.00 Ry     beta= 0.70
     Davidson diagonalization with overlap
     ethr =  3.14E-05,  avg # of iterations =  8.4

     negative rho (up, down):  9.885E-01 0.000E+00

     total cpu time spent up to now is      102.7 secs

     total energy              =   -3673.18889007 Ry
     estimated scf accuracy    <       0.11806380 Ry

     iteration #  7     ecut=    40.00 Ry     beta= 0.70
     Davidson diagonalization with overlap
     ethr =  2.98E-05,  avg # of iterations =  2.4

     negative rho (up, down):  9.939E-01 0.000E+00

     total cpu time spent up to now is      115.0 secs

     total energy              =   -3673.18393163 Ry
     estimated scf accuracy    <       0.12028304 Ry

     iteration #  8     ecut=    40.00 Ry     beta= 0.70
     Davidson diagonalization with overlap
     ethr =  2.98E-05,  avg # of iterations =  4.1

     negative rho (up, down):  1.008E+00 0.000E+00

     total cpu time spent up to now is      128.5 secs

     total energy              =   -3673.17745673 Ry
     estimated scf accuracy    <       0.07088813 Ry

     iteration #  9     ecut=    40.00 Ry     beta= 0.70
     Davidson diagonalization with overlap
     ethr =  1.79E-05,  avg # of iterations = 10.4

     negative rho (up, down):  1.004E+00 0.000E+00

     total cpu time spent up to now is      148.6 secs

     total energy              =   -3673.18549310 Ry
     estimated scf accuracy    <       0.09145867 Ry

     iteration # 10     ecut=    40.00 Ry     beta= 0.70
     Davidson diagonalization with overlap
     ethr =  1.79E-05,  avg # of iterations =  1.0

     negative rho (up, down):  1.021E+00 0.000E+00

     total cpu time spent up to now is      159.2 secs

     total energy              =   -3673.18098488 Ry
     estimated scf accuracy    <       0.05729541 Ry

     iteration # 11     ecut=    40.00 Ry     beta= 0.70
     Davidson diagonalization with overlap
     ethr =  1.45E-05,  avg # of iterations =  1.4

     negative rho (up, down):  1.024E+00 0.000E+00

     total cpu time spent up to now is      170.5 secs

     total energy              =   -3673.18392587 Ry
     estimated scf accuracy    <       0.03209704 Ry

     iteration # 12     ecut=    40.00 Ry     beta= 0.70
     Davidson diagonalization with overlap
     ethr =  8.11E-06,  avg # of iterations =  3.2

     negative rho (up, down):  1.034E+00 0.000E+00

     total cpu time spent up to now is      183.5 secs

     total energy              =   -3673.17628539 Ry
     estimated scf accuracy    <       0.05581730 Ry

     iteration # 13     ecut=    40.00 Ry     beta= 0.70
     Davidson diagonalization with overlap
     ethr =  8.11E-06,  avg # of iterations =  9.0

     negative rho (up, down):  1.013E+00 0.000E+00

     total cpu time spent up to now is      201.2 secs

     total energy              =   -3673.17764786 Ry
     estimated scf accuracy    <       0.00530598 Ry

     iteration # 14     ecut=    40.00 Ry     beta= 0.70
     Davidson diagonalization with overlap
     ethr =  1.34E-06,  avg # of iterations =  9.3

     negative rho (up, down):  1.003E+00 0.000E+00

     total cpu time spent up to now is      226.2 secs

     total energy              =   -3673.17885974 Ry
     estimated scf accuracy    <       0.01365565 Ry

     iteration # 15     ecut=    40.00 Ry     beta= 0.70
     Davidson diagonalization with overlap
     ethr =  1.34E-06,  avg # of iterations =  2.6

     negative rho (up, down):  9.919E-01 0.000E+00

     total cpu time spent up to now is      238.8 secs

     total energy              =   -3673.17782115 Ry
     estimated scf accuracy    <       0.00642899 Ry

     iteration # 16     ecut=    40.00 Ry     beta= 0.70
     Davidson diagonalization with overlap
     ethr =  1.34E-06,  avg # of iterations =  7.9

     negative rho (up, down):  9.845E-01 0.000E+00

     total cpu time spent up to now is      257.0 secs

     total energy              =   -3673.17830414 Ry
     estimated scf accuracy    <       0.00021444 Ry

     iteration # 17     ecut=    40.00 Ry     beta= 0.70
     Davidson diagonalization with overlap
     ethr =  5.42E-08,  avg # of iterations =  7.6

     negative rho (up, down):  9.799E-01 0.000E+00

     total cpu time spent up to now is      274.8 secs

     total energy              =   -3673.17830944 Ry
     estimated scf accuracy    <       0.00003375 Ry

     iteration # 18     ecut=    40.00 Ry     beta= 0.70
     Davidson diagonalization with overlap
     ethr =  8.52E-09,  avg # of iterations =  8.7

     negative rho (up, down):  9.788E-01 0.000E+00

     total cpu time spent up to now is      292.2 secs

     total energy              =   -3673.17833441 Ry
     estimated scf accuracy    <       0.00000910 Ry

     iteration # 19     ecut=    40.00 Ry     beta= 0.70
     Davidson diagonalization with overlap
     ethr =  2.30E-09,  avg # of iterations =  4.0

     negative rho (up, down):  9.787E-01 0.000E+00

     total cpu time spent up to now is      306.8 secs

     total energy              =   -3673.17834581 Ry
     estimated scf accuracy    <       0.00000103 Ry

     iteration # 20     ecut=    40.00 Ry     beta= 0.70
     Davidson diagonalization with overlap
     ethr =  2.60E-10,  avg # of iterations =  4.1

     negative rho (up, down):  9.786E-01 0.000E+00

     total cpu time spent up to now is      320.9 secs

     End of self-consistent calculation

          k = 0.0417 0.0481 0.0000 ( 27553 PWs)   bands (ev):

    -0.8130  -0.4713   0.0254   0.6015   1.1251   1.4434   1.5649   1.5684
     1.6142   1.8505   1.8642   2.0337   2.1254   2.1636   2.2293   2.2806
     2.3229   2.3502   2.3810   2.3915   2.4407   2.4759   2.4837   2.5151
     2.5463   2.5802   2.6415   2.6673   2.7237   2.7591   2.7907   2.8247
     2.8573   2.9403   2.9794   3.0562   3.0815   3.1172   3.1761   3.1947
     3.2140   3.2337   3.2618   3.3218   3.3319   3.3443   3.3607   3.3758
     3.4825   3.5091   3.5480   3.5630   3.5671   3.5868   3.6076   3.6907
     3.7320   3.7326   3.7656   3.7743   3.7941   3.8282   3.8526   3.8935
     3.8952   3.9021   3.9073   3.9192   3.9347   3.9388   3.9549   3.9611
     3.9635   3.9878   3.9942   4.0118   4.0426   4.0732   4.0802   4.0954
     4.0992   4.1178   4.1400   4.1645   4.1655   4.1744   4.1754   4.2067
     4.3004   4.3059   4.3147   4.3185   4.3330   4.3481   4.3674   4.3705
     4.3829   4.3945   4.5099   4.5128   4.5189   4.5251   4.6991   4.7088
     4.7254   4.7468   4.7648   4.7728   4.8822   4.8920   4.9030   4.9914
     5.0353   5.0607   5.1116   5.1243   5.1516   5.1907   5.2013   5.2235
     5.2294   5.2362   5.2703   5.2754   5.2830   5.3191   5.3323   5.3344
     5.3403   5.3474   5.4068   5.4282   5.4319   5.4609   5.4888   5.5166
     5.5457   5.5551   5.6415   5.6481   5.6787   5.7000   5.7304   5.7908
     5.8308   5.8603   5.8977   5.9257   5.9600   5.9966   6.0133   6.0978
     6.1183   6.1341   6.1659   6.1963   6.2073   6.2203   6.2347   6.2531
     6.3037   6.3279   6.3460   6.3608   6.3716   6.3778   6.3923   6.3981
     6.3990   6.4318   6.4347   6.4386   6.4652   6.4866   6.5348   6.5461
     6.5487   6.5758   6.5962   6.5993   6.6013   6.6087   6.6337   6.6386
     6.7570   6.7610   6.9130   6.9135   7.0799   7.6697   7.7970   7.8521
     8.0477   8.2769   8.3596   8.4535   8.4654   8.7137   8.7921   8.9272
     9.0404   9.0560   9.2728   9.2777   9.2967   9.6611   9.7600   9.9042
     9.9110   9.9943  10.5296  10.6513  11.1449  11.2646  11.3376  11.3826
    11.4669  11.8214  11.8827  12.0476  12.0969  12.3382  12.6162  12.6192
    12.6452  12.7766  12.8749  13.2843  13.3837  13.4640  13.4912  13.7255
    13.8083  13.8832  13.9571  13.9952  13.9963  14.0079

          k = 0.0417 0.1443 0.0000 ( 27502 PWs)   bands (ev):

    -0.7122  -0.3721   0.1226   0.6973   1.2202   1.5338   1.6052   1.6505
     1.6610   1.8612   1.8864   2.0573   2.0992   2.1520   2.1678   2.2132
     2.2572   2.2768   2.2876   2.3123   2.3612   2.4145   2.4685   2.4946
     2.4996   2.5195   2.5878   2.6429   2.6925   2.7018   2.7022   2.7113
     2.7433   2.8196   2.8704   2.8925   2.9247   3.0051   3.0410   3.0827
     3.1303   3.1627   3.2320   3.2377   3.2685   3.3404   3.3500   3.3744
     3.5018   3.5242   3.5494   3.5561   3.5886   3.6160   3.6853   3.6859
     3.7020   3.7670   3.7707   3.7915   3.8464   3.8507   3.8648   3.9113
     3.9126   3.9279   3.9387   3.9444   3.9763   3.9820   4.0006   4.0220
     4.0253   4.0561   4.0671   4.0746   4.1083   4.1222   4.1463   4.1739
     4.1779   4.1873   4.1946   4.2220   4.2261   4.2319   4.2716   4.2828
     4.3079   4.3230   4.3491   4.3605   4.3987   4.4232   4.4239   4.4611
     4.4933   4.5053   4.5335   4.5395   4.5779   4.5987   4.6310   4.6706
     4.6893   4.7170   4.8047   4.8209   4.8960   4.9470   4.9753   4.9995
     5.0481   5.0841   5.0936   5.0984   5.1167   5.1297   5.2385   5.2517
     5.2546   5.2574   5.2796   5.3461   5.3470   5.3597   5.3711   5.4102
     5.4373   5.4543   5.4708   5.4979   5.5082   5.5269   5.5381   5.5503
     5.5815   5.6045   5.6131   5.6512   5.6712   5.7144   5.7285   5.7741
     5.7902   5.8591   5.8643   5.9141   5.9484   5.9827   5.9844   6.0199
     6.1242   6.1255   6.1468   6.1507   6.2117   6.2146   6.2241   6.2278
     6.2503   6.2757   6.3144   6.3144   6.3223   6.3343   6.3622   6.3840
     6.3896   6.3931   6.4004   6.4540   6.4583   6.4655   6.5051   6.5419
     6.5433   6.5496   6.5648   6.5979   6.5996   6.6026   6.6029   6.7179
     6.7451   6.7966   6.9113   6.9114   7.1489   7.4630   7.5677   7.6594
     7.7876   7.7931   8.0370   8.0831   8.2941   8.4394   8.4792   8.7583
     8.7940   9.0339   9.1524   9.2662   9.4276   9.7076   9.7680   9.9049
    10.5420  10.6517  10.6637  11.0144  11.2608  11.3006  11.3798  11.6091
    11.6930  11.7723  11.8435  12.0152  12.0881  12.2304  12.2956  12.4476
    12.5529  12.7281  12.8223  12.9210  12.9507  13.1168  13.2777  13.4308
    13.4392  13.6183  13.6477  13.7157  13.8985  14.0477

          k = 0.0417 0.2406 0.0000 ( 27513 PWs)   bands (ev):

    -0.5140  -0.1778   0.3117   0.8821   1.4019   1.5834   1.7090   1.8040
     1.8168   1.8556   1.9102   1.9475   2.0095   2.0845   2.1272   2.1441
     2.1466   2.1616   2.2418   2.2477   2.3027   2.3383   2.3701   2.4364
     2.4396   2.4515   2.4743   2.5358   2.5380   2.5681   2.5945   2.5986
     2.6170   2.6637   2.7718   2.7726   2.8061   2.8490   2.8754   2.9229
     2.9565   3.1332   3.1631   3.1811   3.2796   3.3280   3.3540   3.3779
     3.5320   3.5437   3.5538   3.5936   3.6247   3.6298   3.6923   3.7202
     3.7349   3.7437   3.7592   3.7853   3.8267   3.8572   3.8682   3.9197
     3.9234   3.9488   3.9800   4.0163   4.0193   4.0534   4.0697   4.0709
     4.1021   4.1097   4.1198   4.1394   4.1500   4.1832   4.1936   4.2021
     4.2051   4.2183   4.2369   4.2544   4.3005   4.3062   4.3148   4.3394
     4.3506   4.3691   4.3997   4.4255   4.4668   4.4855   4.4907   4.4993
     4.5356   4.5362   4.5788   4.5865   4.7256   4.7308   4.7854   4.8104
     4.8178   4.8262   4.8497   4.8597   4.9067   5.0023   5.0168   5.0249
     5.0342   5.0375   5.1096   5.1226   5.1804   5.2000   5.2312   5.2506
     5.2742   5.2770   5.2973   5.3644   5.3673   5.3763   5.3768   5.4094
     5.4869   5.5335   5.5427   5.5471   5.5779   5.6204   5.6323   5.6408
     5.6749   5.7079   5.7309   5.7335   5.7669   5.7780   5.8003   5.8289
     5.8341   5.8441   5.8570   5.9035   5.9909   6.0096   6.0443   6.0539
     6.0719   6.0773   6.0909   6.1246   6.1531   6.1686   6.1842   6.1999
     6.2058   6.2262   6.2263   6.2358   6.2659   6.2731   6.2791   6.2827
     6.3073   6.3589   6.3702   6.3774   6.4187   6.4455   6.4498   6.4743
     6.5163   6.5468   6.5485   6.5864   6.5929   6.5993   6.5998   6.6628
     6.7255   6.7402   6.8159   6.9061   6.9068   6.9118   7.0668   7.4072
     7.6392   7.8003   7.8663   8.0290   8.1974   8.3293   8.4201   8.5164
     8.8061   9.0221   9.1286   9.2505   9.3120   9.7011   9.7805   9.8689
    10.2501  10.5448  10.6437  11.0497  11.2183  11.2741  11.3421  11.4439
    11.6622  11.8063  11.9858  12.0117  12.1029  12.1263  12.3036  12.3201
    12.5247  12.5924  12.6535  12.7651  12.8168  12.9352  13.0654  13.0963
    13.1681  13.4464  13.5260  13.6623  13.8265  14.0991

          k = 0.0417 0.3368 0.0000 ( 27517 PWs)   bands (ev):

    -0.2263   0.1020   0.5802   1.1388   1.5057   1.6432   1.7517   1.7547
     1.8300   1.9392   1.9730   1.9998   2.0104   2.0133   2.0284   2.0428
     2.0658   2.0743   2.1688   2.1962   2.2340   2.2734   2.2886   2.3080
     2.3438   2.3808   2.3833   2.4081   2.4494   2.4563   2.4766   2.5534
     2.5905   2.6141   2.6591   2.6731   2.6933   2.7013   2.7855   2.8068
     2.8759   3.1222   3.1401   3.1993   3.2746   3.3130   3.3792   3.4049
     3.4214   3.5151   3.5763   3.5857   3.5909   3.6264   3.6447   3.6978
     3.7044   3.7594   3.7715   3.7878   3.8468   3.8556   3.8678   3.9410
     3.9530   3.9710   3.9758   4.0154   4.0419   4.0580   4.0764   4.0789
     4.1318   4.1412   4.1548   4.1625   4.1695   4.1871   4.2004   4.2560
     4.2740   4.2745   4.2887   4.2968   4.3224   4.3538   4.3689   4.3710
     4.3817   4.3938   4.4713   4.4782   4.4956   4.5051   4.5343   4.5561
     4.5744   4.6622   4.6805   4.6919   4.7146   4.7190   4.8015   4.8152
     4.8242   4.8719   4.9011   4.9252   4.9586   4.9713   4.9819   5.0066
     5.0848   5.0951   5.1293   5.1733   5.2251   5.2392   5.2411   5.2593
     5.2860   5.3267   5.3374   5.3446   5.3731   5.3878   5.4030   5.4036
     5.4730   5.5373   5.5823   5.5992   5.6077   5.6681   5.6968   5.7313
     5.7485   5.7699   5.8374   5.8538   5.8543   5.8574   5.9006   5.9109
     5.9491   5.9495   5.9589   5.9689   6.0132   6.0142   6.0278   6.0362
     6.0479   6.0574   6.0736   6.0767   6.0912   6.1010   6.1304   6.1453
     6.1764   6.1929   6.2095   6.2489   6.2582   6.2636   6.2649   6.2674
     6.2915   6.2933   6.3174   6.3340   6.3364   6.3498   6.3649   6.3779
     6.4244   6.4253   6.4426   6.5474   6.5509   6.5856   6.5905   6.6022
     6.6044   6.7175   6.7290   6.8260   6.8957   6.8969   6.8975   7.4969
     7.6142   7.7174   7.8510   8.0663   8.2648   8.3614   8.4215   8.5960
     8.6837   8.8540   9.0093   9.2263   9.3898   9.7304   9.7558   9.7878
    10.0744  10.2530  10.4663  10.5921  10.7565  10.7871  11.1351  11.1945
    11.2268  11.3899  11.4826  11.6598  11.7792  11.8566  12.1129  12.2551
    12.3472  12.4088  12.6221  12.7048  12.8498  13.1945  13.2841  13.4599
    13.4633  13.6555  13.6884  13.8962  13.9568  14.1119

          k = 0.0417 0.4330 0.0000 ( 27525 PWs)   bands (ev):

     0.1366   0.4500   0.9045   1.3072   1.4288   1.5450   1.6497   1.6965
     1.7919   1.8972   1.9034   1.9191   1.9250   1.9444   2.0365   2.0853
     2.1139   2.1708   2.1737   2.1758   2.1996   2.2057   2.2504   2.2863
     2.2884   2.3236   2.3384   2.3593   2.3625   2.4228   2.4861   2.5088
     2.5180   2.5548   2.5682   2.6489   2.6954   2.7050   2.7232   2.8035
     3.0105   3.0889   3.1044   3.1416   3.2489   3.2917   3.3541   3.4097
     3.4395   3.4520   3.4837   3.5155   3.5843   3.6151   3.6199   3.6486
     3.6779   3.7082   3.7496   3.7650   3.7863   3.8922   3.9038   3.9096
     3.9451   3.9480   3.9654   3.9776   4.0220   4.0631   4.0737   4.0849
     4.1157   4.1396   4.1479   4.1812   4.1914   4.1974   4.2187   4.2237
     4.2687   4.3034   4.3271   4.3446   4.3508   4.3783   4.4045   4.4191
     4.4321   4.4577   4.4625   4.4934   4.5489   4.5569   4.5803   4.5839
     4.5906   4.6127   4.6646   4.7063   4.7478   4.7951   4.8265   4.8332
     4.8598   4.8665   4.9186   4.9267   4.9464   4.9664   4.9820   4.9850
     5.0121   5.0274   5.0522   5.1356   5.1719   5.1830   5.2020   5.2201
     5.3214   5.3470   5.3784   5.3931   5.3970   5.4289   5.4492   5.4806
     5.4942   5.5095   5.5536   5.5747   5.5795   5.5888   5.6071   5.6435
     5.6678   5.7295   5.7676   5.7916   5.7997   5.8346   5.8781   5.8977
     5.9036   5.9071   5.9434   5.9722   6.0237   6.0299   6.0379   6.0598
     6.1097   6.1184   6.1274   6.1564   6.1596   6.1744   6.1938   6.2346
     6.2363   6.2540   6.2716   6.2757   6.2937   6.3006   6.3011   6.3213
     6.3273   6.3572   6.3663   6.3762   6.3907   6.4266   6.4355   6.4494
     6.4642   6.4811   6.4875   6.5642   6.5679   6.5877   6.5893   6.6269
     6.6274   6.7191   6.7259   6.8303   6.8752   6.8779   6.9662   7.4848
     7.6162   7.7839   7.9867   8.2066   8.2357   8.2998   8.5083   8.6562
     8.6806   8.9604   9.0369   9.1737   9.2184   9.4831   9.7081   9.7106
     9.7774   9.9557  10.0862  10.2304  10.3586  10.6335  10.6521  10.9776
    11.0276  11.1342  11.2093  11.3341  11.4416  11.5260  11.8430  12.0922
    12.0992  12.4254  12.5344  12.5789  12.6670  13.0059  13.3242  13.4003
    13.5493  13.6329  13.7995  14.0116  14.0998  14.2508

          k = 0.0417 0.5292 0.0000 ( 27573 PWs)   bands (ev):

     0.5491   0.8362   0.9649   1.2160   1.2463   1.5573   1.6035   1.6194
     1.7228   1.8476   1.8522   1.8546   1.8683   1.9218   2.0303   2.0406
     2.1220   2.1227   2.1516   2.1520   2.1714   2.2258   2.2382   2.2442
     2.3148   2.3180   2.3337   2.4115   2.4166   2.4302   2.4887   2.4954
     2.5246   2.6022   2.6234   2.6688   2.6847   2.7341   2.7689   2.9326
     2.9613   3.0695   3.0835   3.1480   3.1696   3.2912   3.3247   3.3696
     3.4219   3.4496   3.4594   3.4757   3.5121   3.6019   3.6212   3.6469
     3.6482   3.6595   3.6847   3.7790   3.7921   3.8015   3.8650   3.8697
     3.8698   3.9261   3.9495   3.9552   3.9803   4.0262   4.0868   4.1081
     4.1103   4.1337   4.1657   4.1832   4.1889   4.1906   4.2008   4.2185
     4.2377   4.2549   4.3219   4.3579   4.3807   4.4298   4.4315   4.4335
     4.4526   4.4662   4.4688   4.4917   4.5283   4.5336   4.5363   4.5974
     4.6326   4.6592   4.6927   4.7183   4.7515   4.8137   4.8721   4.8811
     4.8963   4.8992   4.9300   4.9599   4.9754   4.9811   4.9991   5.0120
     5.0294   5.0309   5.0823   5.1087   5.1282   5.1541   5.2162   5.2317
     5.2610   5.2615   5.2666   5.2963   5.3270   5.3513   5.3544   5.3754
     5.4200   5.4794   5.4962   5.5165   5.5401   5.5512   5.5727   5.6063
     5.6111   5.6971   5.7482   5.7568   5.7624   5.8117   5.8488   5.8656
     5.8931   5.9061   5.9771   5.9781   5.9955   6.0745   6.0952   6.1176
     6.1430   6.1755   6.1798   6.2015   6.2316   6.2340   6.2599   6.2671
     6.2940   6.3138   6.3362   6.3460   6.3476   6.3762   6.3788   6.3904
     6.3927   6.3959   6.4286   6.4325   6.4518   6.4563   6.4679   6.5118
     6.5127   6.5646   6.5714   6.5882   6.5888   6.6527   6.6705   6.6970
     6.6976   6.7198   6.7254   6.8342   6.8534   6.8765   6.9559   7.5268
     7.7395   7.7989   8.0376   8.1463   8.2409   8.5507   8.5855   8.7753
     8.7833   8.9469   8.9508   9.1043   9.1965   9.3531   9.4611   9.5885
     9.6442   9.7175   9.8307   9.9362   9.9979  10.0743  10.8572  10.8659
    10.9821  11.0640  11.0768  11.2294  11.2591  11.3282  11.7284  11.9531
    12.0584  12.3794  12.4490  12.5512  12.6094  12.8468  13.2437  13.3197
    13.6762  13.6800  13.8227  13.9530  13.9849  14.3581

          k = 0.1250 0.0481 0.0000 ( 27526 PWs)   bands (ev):

    -0.7372  -0.3966   0.0988   0.6743   1.1979   1.5128   1.6297   1.6348
     1.6767   1.9017   1.9258   2.0924   2.1250   2.1651   2.2301   2.2415
     2.2835   2.2968   2.3562   2.4141   2.4403   2.4724   2.5418   2.5508
     2.5817   2.6333   2.6409   2.6938   2.7517   2.7897   2.8323   2.8637
     2.9154   2.9236   3.0343   3.0607   3.0746   3.1539   3.1787   3.1960
     3.2221   3.2577   3.2962   3.2994   3.3324   3.3383   3.3721   3.3888
     3.4133   3.4855   3.5313   3.5527   3.5680   3.6023   3.6292   3.6970
     3.7176   3.7215   3.7228   3.7297   3.8087   3.8156   3.8414   3.8588
     3.8755   3.8836   3.8983   3.9144   3.9350   3.9544   3.9661   3.9766
     3.9818   3.9838   3.9897   4.0325   4.0582   4.0635   4.0747   4.0922
     4.1017   4.1139   4.1647   4.1684   4.1814   4.1891   4.1916   4.2078
     4.2223   4.2368   4.2928   4.3041   4.3123   4.3596   4.3653   4.3839
     4.3942   4.4135   4.4440   4.4980   4.5232   4.5524   4.6508   4.6742
     4.6756   4.7465   4.7709   4.8269   4.8743   4.9329   4.9343   4.9401
     4.9473   5.0631   5.0670   5.1002   5.1215   5.1345   5.1396   5.1516
     5.2109   5.2259   5.2500   5.2603   5.2669   5.3246   5.3274   5.3414
     5.3537   5.3621   5.3643   5.4065   5.4529   5.5063   5.5087   5.5256
     5.5510   5.5736   5.5812   5.5988   5.6384   5.7037   5.7297   5.7567
     5.8009   5.8473   5.8647   5.8697   5.8805   5.9533   5.9700   6.0323
     6.0793   6.0965   6.1341   6.1833   6.1836   6.2069   6.2208   6.2231
     6.2691   6.2867   6.2955   6.3087   6.3148   6.3452   6.3466   6.3561
     6.3677   6.3734   6.3755   6.3952   6.4473   6.4799   6.4813   6.4836
     6.5086   6.5289   6.5381   6.5455   6.5466   6.5771   6.6056   6.6689
     6.7018   6.7886   6.8427   6.8444   7.1244   7.2039   7.3954   7.3983
     7.7220   8.1390   8.2659   8.5428   8.8448   8.9423   8.9858   9.0976
     9.1662   9.1958   9.4415   9.4739   9.5982   9.7592   9.8114  10.0291
    10.1406  10.1419  10.5047  10.7970  11.1635  11.2338  11.3927  11.4103
    11.5352  11.7031  11.9239  11.9537  12.0719  12.0837  12.1802  12.5528
    12.6992  12.7426  12.8334  12.9775  13.2619  13.5810  13.5985  13.7973
    13.8116  14.0016  14.0444  14.1656  14.2973  14.3416

          k = 0.1250 0.1443 0.0000 ( 27539 PWs)   bands (ev):

    -0.6372  -0.2984   0.1948   0.7686   1.2912   1.6013   1.6683   1.7139
     1.7257   1.9239   1.9384   1.9571   2.1161   2.1647   2.2065   2.2217
     2.2607   2.3211   2.3217   2.3234   2.3771   2.3945   2.4787   2.5097
     2.5414   2.5645   2.5866   2.6155   2.6828   2.7270   2.7617   2.7712
     2.7844   2.8146   2.8739   2.9332   2.9685   3.0289   3.0985   3.1024
     3.1242   3.1932   3.2460   3.2699   3.2996   3.3420   3.3817   3.4148
     3.4607   3.4952   3.5255   3.5369   3.5493   3.6389   3.6479   3.6633
     3.7345   3.7509   3.7994   3.8051   3.8126   3.8246   3.8487   3.8727
     3.8777   3.9144   3.9179   3.9486   3.9812   3.9947   4.0119   4.0284
     4.0292   4.0427   4.0447   4.0817   4.1098   4.1223   4.1504   4.1660
     4.1692   4.1912   4.2029   4.2084   4.2284   4.2542   4.2784   4.2839
     4.2996   4.3004   4.3358   4.3456   4.3769   4.4102   4.4247   4.4416
     4.4696   4.5056   4.5550   4.5661   4.5810   4.5835   4.5968   4.6253
     4.6418   4.6965   4.8032   4.8192   4.8765   4.9120   4.9256   4.9716
     4.9755   5.0441   5.0699   5.0771   5.0934   5.1010   5.2103   5.2368
     5.2451   5.2518   5.2904   5.2970   5.3095   5.3344   5.3645   5.3700
     5.3756   5.4066   5.4448   5.4629   5.4638   5.4917   5.5318   5.5376
     5.5756   5.5952   5.6161   5.6421   5.6440   5.6864   5.7092   5.7305
     5.7919   5.8195   5.8264   5.8960   5.9140   5.9402   6.0112   6.0297
     6.0560   6.1053   6.1198   6.1521   6.1553   6.1741   6.1896   6.1992
     6.2201   6.2426   6.2476   6.2587   6.2649   6.2960   6.3295   6.3473
     6.3475   6.3589   6.3881   6.3901   6.4012   6.4669   6.4739   6.4741
     6.4821   6.5319   6.5376   6.5409   6.5465   6.5598   6.5880   6.6681
     6.7151   6.8407   6.8414   6.9642   7.0947   7.1915   7.3759   7.4281
     7.6599   7.7035   7.7552   7.9648   8.2566   8.3176   8.9663   8.9805
     9.0037   9.2328   9.2602   9.5720   9.6172   9.7780   9.8868  10.1477
    10.5118  10.7994  10.8092  11.0014  11.0534  11.2011  11.3367  11.3812
    11.5398  11.6727  11.8383  11.8471  11.9863  12.1282  12.2966  12.3099
    12.4714  12.8794  12.9857  12.9994  13.0882  13.4960  13.5798  13.6138
    13.6344  13.6806  13.9059  14.0576  14.1008  14.2286

          k = 0.1250 0.2406 0.0000 ( 27521 PWs)   bands (ev):

    -0.4406  -0.1060   0.3815   0.9506   1.4700   1.6490   1.7732   1.7997
     1.8669   1.8783   1.9188   2.0014   2.0357   2.1109   2.1458   2.1482
     2.1912   2.1931   2.2860   2.2890   2.3279   2.3413   2.3624   2.4178
     2.4338   2.4734   2.5109   2.5377   2.5973   2.6016   2.6485   2.6627
     2.6757   2.7098   2.7507   2.7935   2.8313   2.8787   2.9006   2.9845
     3.0231   3.1447   3.1694   3.2239   3.3063   3.3295   3.3600   3.4117
     3.4783   3.5042   3.5342   3.5626   3.5924   3.5983   3.7060   3.7155
     3.7246   3.7468   3.7593   3.7957   3.8030   3.8288   3.8391   3.8922
     3.9344   3.9628   3.9807   3.9979   4.0099   4.0302   4.0642   4.0780
     4.0963   4.1054   4.1322   4.1376   4.1529   4.1692   4.1986   4.2086
     4.2286   4.2346   4.2505   4.2698   4.2935   4.3026   4.3297   4.3331
     4.3542   4.3623   4.3879   4.4040   4.4321   4.4596   4.5039   4.5243
     4.5410   4.5424   4.5830   4.6191   4.6623   4.7085   4.7146   4.7277
     4.7639   4.7865   4.8186   4.8404   4.9107   4.9678   4.9681   5.0132
     5.0189   5.0348   5.0716   5.0943   5.1001   5.1254   5.1485   5.1947
     5.2266   5.2611   5.2809   5.3281   5.3349   5.3564   5.3720   5.4068
     5.4194   5.4640   5.4971   5.5196   5.5436   5.5798   5.5871   5.5940
     5.6079   5.6223   5.6794   5.6940   5.6976   5.7414   5.7631   5.8068
     5.8185   5.8263   5.9081   5.9378   5.9544   5.9587   5.9702   6.0128
     6.0187   6.0290   6.0885   6.1032   6.1346   6.1473   6.1560   6.1676
     6.1801   6.1870   6.2104   6.2191   6.2206   6.2427   6.2559   6.2775
     6.2889   6.3210   6.3425   6.3857   6.4200   6.4234   6.4531   6.4812
     6.4922   6.5118   6.5323   6.5404   6.5408   6.5499   6.6153   6.6679
     6.7675   6.8334   6.8360   6.8426   7.0300   7.0385   7.1256   7.1762
     7.2758   7.3471   7.5888   7.6746   8.0190   8.2467   8.3646   9.0044
     9.0949   9.2666   9.3013   9.4093   9.6380   9.7991   9.8460  10.0797
    10.3041  10.3670  10.5124  10.5825  10.8617  11.0971  11.2954  11.3707
    11.5077  11.7683  12.0033  12.0777  12.1579  12.2229  12.3316  12.5628
    12.7156  12.8587  12.8696  13.0103  13.0743  13.1285  13.2670  13.3372
    13.3808  13.5609  13.8521  13.9069  14.1460  14.2555

          k = 0.1250 0.3368 0.0000 ( 27501 PWs)   bands (ev):

    -0.1549   0.1714   0.6469   1.2038   1.5749   1.6799   1.7087   1.8191
     1.9138   1.9254   2.0012   2.0128   2.0350   2.0688   2.0731   2.1040
     2.1239   2.1538   2.1707   2.2157   2.2288   2.2883   2.2921   2.3456
     2.3730   2.3889   2.4278   2.4591   2.4816   2.5061   2.5472   2.5897
     2.5897   2.6479   2.6633   2.7333   2.7532   2.7624   2.8118   2.8660
     2.8937   3.1231   3.1761   3.2073   3.2936   3.3246   3.3859   3.3859
     3.4472   3.4624   3.5241   3.5615   3.5891   3.6085   3.6497   3.6546
     3.6589   3.7370   3.7663   3.8273   3.8382   3.8569   3.8703   3.9000
     3.9185   3.9450   3.9832   4.0104   4.0307   4.0359   4.0664   4.0811
     4.1010   4.1109   4.1301   4.1502   4.1826   4.2054   4.2085   4.2300
     4.2668   4.2919   4.2939   4.2994   4.3217   4.3229   4.3573   4.3764
     4.3935   4.3966   4.4341   4.4649   4.4954   4.5338   4.5557   4.5561
     4.6098   4.6273   4.6656   4.6927   4.7014   4.7245   4.7484   4.7677
     4.7895   4.7962   4.8489   4.9332   4.9425   4.9570   4.9628   5.0072
     5.0595   5.0702   5.0773   5.1292   5.1433   5.1553   5.1833   5.1843
     5.2302   5.2724   5.2975   5.3217   5.3481   5.3611   5.4003   5.4378
     5.4565   5.4988   5.5269   5.5334   5.5433   5.6304   5.6356   5.6756
     5.7012   5.7258   5.7563   5.7680   5.7926   5.7963   5.8729   5.8765
     5.9011   5.9081   5.9524   5.9552   5.9806   5.9885   6.0004   6.0319
     6.0323   6.0630   6.0727   6.1040   6.1207   6.1215   6.1473   6.1480
     6.1644   6.1747   6.1841   6.2325   6.2330   6.2484   6.2598   6.2812
     6.2922   6.3261   6.3380   6.3577   6.3810   6.3879   6.3912   6.4347
     6.4423   6.4814   6.5105   6.5155   6.5191   6.5495   6.5574   6.5641
     6.5816   6.6651   6.7078   6.8187   6.8235   6.9229   6.9712   7.0594
     7.1870   7.3457   7.5601   7.6641   7.8644   8.2606   8.3483   8.8023
     9.0303   9.1234   9.3083   9.4699   9.4731   9.6382   9.7736   9.8570
     9.9281  10.1339  10.2083  10.3903  10.5470  10.7553  10.8782  11.1788
    11.2674  11.6902  11.7293  11.9386  12.1100  12.2483  12.2802  12.3196
    12.4724  12.4820  12.7315  13.0059  13.2141  13.2516  13.5344  13.5407
    13.6857  13.7468  13.8815  14.0031  14.2538  14.3125

          k = 0.1250 0.4330 0.0000 ( 27522 PWs)   bands (ev):

     0.2061   0.5170   0.9683   1.3785   1.4916   1.6106   1.6116   1.7566
     1.8527   1.8594   1.9155   1.9643   1.9896   2.0034   2.0802   2.0953
     2.1472   2.1685   2.1980   2.2214   2.2393   2.2716   2.2761   2.3135
     2.3505   2.3859   2.3883   2.3930   2.3984   2.4793   2.4843   2.5328
     2.5527   2.6066   2.6238   2.7090   2.7139   2.7374   2.7672   2.8643
     3.0243   3.0910   3.1366   3.1502   3.2609   3.2987   3.3490   3.4094
     3.4221   3.4549   3.4688   3.4798   3.5527   3.5876   3.5906   3.6267
     3.6772   3.6910   3.7235   3.7374   3.8343   3.8367   3.8915   3.8966
     3.9165   3.9224   3.9322   3.9662   3.9919   4.0407   4.0457   4.0592
     4.0714   4.1073   4.1216   4.1512   4.1612   4.1934   4.2120   4.2130
     4.2431   4.2485   4.2913   4.3218   4.3469   4.3764   4.3830   4.3854
     4.4078   4.4467   4.4614   4.5161   4.5326   4.5453   4.5524   4.5566
     4.6098   4.6448   4.6707   4.7052   4.7699   4.7798   4.7990   4.8443
     4.8509   4.8797   4.8861   4.9074   4.9077   4.9484   4.9552   4.9714
     4.9784   5.0303   5.0733   5.1181   5.1606   5.1611   5.1932   5.2153
     5.2814   5.3287   5.3457   5.3614   5.3880   5.3882   5.4297   5.4533
     5.4855   5.4947   5.4975   5.5373   5.5493   5.5740   5.6434   5.6788
     5.7087   5.7420   5.7494   5.7690   5.8407   5.8546   5.8627   5.9023
     5.9148   5.9581   5.9707   5.9797   6.0274   6.0637   6.0663   6.0723
     6.0872   6.0910   6.1144   6.1341   6.1610   6.1950   6.2017   6.2027
     6.2083   6.2181   6.2289   6.2500   6.2578   6.2686   6.2733   6.2881
     6.2886   6.3145   6.3392   6.3550   6.3711   6.3754   6.3804   6.3969
     6.4317   6.4549   6.4736   6.5069   6.5389   6.5451   6.5517   6.5801
     6.6146   6.6576   6.6840   6.7915   6.7989   6.9106   6.9559   7.0724
     7.2983   7.4843   7.5300   7.7590   7.8873   8.2719   8.3492   8.5146
     8.7452   8.8107   9.0601   9.1495   9.2552   9.3438   9.6503   9.7894
     9.8021   9.9663  10.2437  10.3087  10.3248  10.7340  10.7663  11.1195
    11.2894  11.4399  11.5535  11.6098  11.6597  11.7685  12.0659  12.1626
    12.2722  12.4872  12.5139  12.7129  12.8818  13.2909  13.4102  13.5278
    13.6062  13.8496  14.0028  14.1607  14.2008  14.6844

          k = 0.1250 0.5292 0.0000 ( 27553 PWs)   bands (ev):

     0.6178   0.9016   1.0347   1.2809   1.3081   1.6011   1.6172   1.6503
     1.7828   1.8490   1.8749   1.8935   1.8997   1.9817   2.0479   2.0792
     2.1391   2.1538   2.1633   2.2023   2.2211   2.2444   2.2810   2.3110
     2.3425   2.3517   2.4043   2.4362   2.4700   2.4802   2.5226   2.5389
     2.5908   2.6632   2.6764   2.6786   2.7239   2.7860   2.8261   2.9482
     2.9914   3.0732   3.1141   3.1627   3.1772   3.2992   3.3292   3.3598
     3.3902   3.4376   3.4377   3.4694   3.4704   3.5593   3.5649   3.6091
     3.6244   3.6442   3.6738   3.7350   3.7745   3.7777   3.8178   3.8599
     3.8801   3.8954   3.9333   3.9557   3.9576   3.9724   4.0188   4.0730
     4.0827   4.0991   4.1097   4.1380   4.1782   4.1845   4.1937   4.2004
     4.2288   4.2462   4.2519   4.3212   4.3305   4.3674   4.3688   4.4064
     4.4267   4.4377   4.4620   4.4827   4.5011   4.5179   4.5428   4.5430
     4.5696   4.6478   4.7124   4.7718   4.8045   4.8438   4.8546   4.8808
     4.8938   4.9181   4.9191   4.9460   4.9517   4.9818   5.0068   5.0114
     5.0165   5.0434   5.0929   5.1392   5.1547   5.1930   5.2273   5.2334
     5.2592   5.2865   5.3122   5.3123   5.3358   5.3693   5.4012   5.4322
     5.4708   5.4781   5.5010   5.5693   5.5726   5.5984   5.6419   5.6505
     5.6609   5.6853   5.6917   5.7599   5.7780   5.7906   5.7992   5.8398
     5.8739   5.9237   5.9372   6.0304   6.0450   6.0554   6.0762   6.0894
     6.0988   6.1217   6.1315   6.1568   6.1654   6.2246   6.2349   6.2379
     6.2487   6.2583   6.2777   6.2827   6.2921   6.3121   6.3269   6.3367
     6.3502   6.3642   6.3820   6.3938   6.4013   6.4102   6.4199   6.4472
     6.4823   6.5086   6.5356   6.5398   6.5515   6.5945   6.6250   6.6540
     6.6565   6.6614   6.6796   6.7488   6.7862   6.9539   7.0461   7.1994
     7.5528   7.6292   7.7926   7.8826   7.9083   8.1021   8.1864   8.1910
     8.4425   8.5575   8.7581   8.8612   9.0162   9.1031   9.3706   9.8567
     9.9074  10.0777  10.1011  10.3275  10.5030  10.7768  10.9418  11.0388
    11.0895  11.2416  11.3478  11.3507  11.4694  11.5751  11.9609  12.1053
    12.1412  12.4420  12.4882  12.6184  12.8209  13.0319  13.3347  13.4287
    13.6311  13.7196  13.9579  14.0502  14.0630  14.4129

          k = 0.2083 0.0481 0.0000 ( 27525 PWs)   bands (ev):

    -0.5876  -0.2496   0.2427   0.8163   1.3393   1.6470   1.7556   1.7632
     1.7975   1.8382   1.9730   1.9922   2.0435   2.1387   2.1986   2.2512
     2.3433   2.3553   2.4224   2.4307   2.4985   2.5682   2.5826   2.6600
     2.6792   2.7040   2.7048   2.7573   2.7854   2.8080   2.8791   2.9154
     2.9433   2.9595   3.0503   3.1029   3.1075   3.1522   3.1761   3.1941
     3.2303   3.2800   3.2947   3.3107   3.3160   3.3307   3.3374   3.4120
     3.4491   3.4696   3.4920   3.5190   3.5548   3.5578   3.6148   3.6488
     3.6569   3.6682   3.6801   3.7575   3.7582   3.7859   3.7902   3.8406
     3.8605   3.8664   3.8918   3.8982   3.9539   3.9569   3.9691   3.9692
     3.9963   4.0048   4.0287   4.0464   4.0476   4.0587   4.0754   4.1146
     4.1393   4.1420   4.1498   4.1504   4.1723   4.1759   4.1832   4.1909
     4.2537   4.2613   4.2635   4.2951   4.3094   4.3242   4.3855   4.3900
     4.4034   4.4617   4.4712   4.4817   4.4941   4.5500   4.5981   4.6153
     4.6167   4.7273   4.7723   4.8306   4.8533   4.8768   4.8890   4.9104
     4.9776   4.9900   5.0123   5.0543   5.0720   5.0852   5.0947   5.1429
     5.1878   5.1885   5.2129   5.2230   5.2446   5.2595   5.2678   5.3252
     5.3352   5.3523   5.3822   5.3935   5.3939   5.4295   5.4686   5.5077
     5.5139   5.5392   5.5523   5.5631   5.5942   5.6265   5.6289   5.7291
     5.7507   5.7964   5.8128   5.8600   5.8616   5.9379   5.9455   5.9626
     6.0563   6.0698   6.0985   6.1095   6.1365   6.1473   6.1641   6.1800
     6.1802   6.2093   6.2325   6.2357   6.2544   6.2724   6.2764   6.2857
     6.2861   6.2965   6.3094   6.3264   6.3629   6.3793   6.3854   6.4210
     6.4230   6.4354   6.4384   6.4548   6.4967   6.5575   6.6190   6.6396
     6.6682   6.6854   6.6941   6.7152   6.7166   6.8761   7.0635   7.0979
     7.5951   7.7919   8.3053   8.5497   8.8266   9.0724   9.0888   9.3480
     9.4148   9.6602   9.7167   9.7776   9.8382   9.9723  10.0377  10.2621
    10.4361  10.4454  10.6217  11.0044  11.0660  11.2101  11.3680  11.4650
    11.5089  11.5922  11.6761  11.7801  12.0043  12.0998  12.1627  12.5155
    12.7546  12.8475  12.9562  13.0675  13.4247  13.5704  13.6156  13.7453
    13.7551  13.7672  14.0994  14.1308  14.1486  14.3915

          k = 0.2083 0.1443 0.0000 ( 27514 PWs)   bands (ev):

    -0.4895  -0.1536   0.3358   0.9069   1.4283   1.7305   1.7476   1.7897
     1.8359   1.8509   1.9449   2.0293   2.0432   2.1316   2.2215   2.2721
     2.2933   2.3509   2.3715   2.4374   2.4380   2.4652   2.4712   2.5877
     2.5890   2.6116   2.6881   2.6882   2.7051   2.7847   2.7883   2.8161
     2.8616   2.8765   2.9015   2.9878   3.0069   3.0791   3.1068   3.1253
     3.1794   3.1957   3.2608   3.3238   3.3392   3.3703   3.4276   3.4379
     3.4386   3.4498   3.4950   3.5052   3.5631   3.5837   3.6178   3.6259
     3.7277   3.7313   3.7374   3.7493   3.7596   3.8017   3.8134   3.8390
     3.8768   3.8832   3.9150   3.9397   3.9495   3.9668   3.9785   3.9985
     4.0264   4.0384   4.0766   4.1155   4.1163   4.1335   4.1679   4.1794
     4.1830   4.2000   4.2099   4.2232   4.2266   4.2496   4.2891   4.3070
     4.3126   4.3152   4.3251   4.3456   4.3482   4.3604   4.3606   4.4811
     4.4830   4.4892   4.5158   4.5239   4.5443   4.5654   4.5826   4.5970
     4.6384   4.6825   4.7638   4.7903   4.8292   4.8362   4.8769   4.9332
     4.9530   4.9755   4.9946   5.0287   5.0595   5.1063   5.1349   5.1543
     5.1653   5.1928   5.1965   5.2144   5.2399   5.2973   5.3091   5.3472
     5.3537   5.3612   5.3814   5.3903   5.4524   5.4541   5.4718   5.4924
     5.5235   5.5272   5.5529   5.5772   5.6203   5.6436   5.6729   5.6829
     5.7537   5.8172   5.8222   5.8598   5.9234   5.9375   5.9442   5.9703
     5.9950   6.0155   6.0520   6.0729   6.0951   6.1196   6.1469   6.1600
     6.1626   6.1722   6.1940   6.2116   6.2242   6.2484   6.2594   6.2650
     6.2716   6.3127   6.3223   6.3401   6.3663   6.3730   6.3871   6.4143
     6.4317   6.4326   6.4528   6.4834   6.5012   6.5583   6.6098   6.6150
     6.6744   6.6776   6.7118   6.7156   6.7553   6.8589   7.0819   7.2087
     7.5875   7.7915   7.9545   8.0387   8.2635   8.3154   8.6851   9.0908
     9.2939   9.4724   9.7442   9.8462   9.8480  10.0410  10.2085  10.3989
    10.4852  10.5951  10.7893  11.0412  11.0647  11.1418  11.2130  11.4139
    11.4748  11.6775  11.7863  11.8818  11.9904  12.2137  12.2572  12.4303
    12.6411  12.9867  13.0109  13.1154  13.1571  13.5266  13.5948  13.6174
    13.7704  13.9138  14.2044  14.2896  14.2969  14.4468

          k = 0.2083 0.2406 0.0000 ( 27501 PWs)   bands (ev):

    -0.2964   0.0345   0.5170   1.0820   1.5992   1.6532   1.7752   1.8822
     1.8925   1.9848   1.9973   2.0383   2.0945   2.0982   2.1596   2.2189
     2.2449   2.2591   2.3037   2.3195   2.3699   2.4263   2.4482   2.4700
     2.4758   2.5039   2.5474   2.6339   2.6433   2.7050   2.7105   2.7329
     2.7749   2.7849   2.7928   2.8492   2.8588   2.9119   2.9841   3.0680
     3.1049   3.1620   3.1924   3.2885   3.3107   3.3180   3.3842   3.4264
     3.4413   3.4638   3.5067   3.5135   3.5748   3.5922   3.6519   3.6645
     3.6706   3.7032   3.7573   3.7580   3.7960   3.8140   3.8367   3.9080
     3.9103   3.9157   3.9377   3.9724   4.0156   4.0160   4.0255   4.0788
     4.0923   4.1175   4.1386   4.1446   4.1557   4.1816   4.2015   4.2209
     4.2248   4.2405   4.2648   4.2693   4.2794   4.2940   4.3177   4.3242
     4.3438   4.3909   4.4117   4.4229   4.4443   4.4655   4.4815   4.4815
     4.5154   4.5789   4.5828   4.5916   4.6123   4.6543   4.6664   4.6794
     4.7212   4.7320   4.7557   4.8107   4.8123   4.8660   4.8813   4.9128
     4.9543   4.9778   5.0015   5.0113   5.0297   5.0559   5.0993   5.1109
     5.1487   5.1903   5.1994   5.2507   5.2747   5.3006   5.3233   5.3608
     5.3797   5.4087   5.4479   5.4584   5.4671   5.4929   5.5125   5.5351
     5.5813   5.5895   5.6007   5.6189   5.6602   5.6705   5.6852   5.7553
     5.7628   5.7695   5.8026   5.8420   5.8699   5.8961   5.9065   5.9528
     5.9923   5.9940   6.0247   6.0632   6.0648   6.0757   6.0791   6.1533
     6.1710   6.1777   6.1855   6.2041   6.2154   6.2206   6.2301   6.2496
     6.2654   6.2980   6.3311   6.3647   6.3739   6.3916   6.4053   6.4108
     6.4363   6.4448   6.4800   6.4933   6.5168   6.5311   6.5649   6.5897
     6.6477   6.6613   6.7040   6.7106   6.8307   6.9010   7.0567   7.1588
     7.3105   7.3801   7.5688   7.5835   7.8963   8.2720   8.3437   8.6556
     9.1226   9.5027   9.5993   9.6730   9.8456   9.8993   9.9252  10.1183
    10.1417  10.4139  10.5513  10.5842  10.7317  11.0369  11.2436  11.4985
    11.5490  11.6985  11.9461  12.1920  12.2853  12.3447  12.3900  12.6904
    12.8313  12.9793  13.1426  13.2766  13.2769  13.3735  13.5422  13.6256
    13.8337  14.0747  14.1921  14.2411  14.3197  14.3691

          k = 0.2083 0.3368 0.0000 ( 27495 PWs)   bands (ev):

    -0.0153   0.3063   0.7752   1.3264   1.5898   1.7080   1.8301   1.8310
     1.9455   2.0088   2.0217   2.0863   2.1129   2.1325   2.1387   2.1783
     2.1825   2.2188   2.2314   2.2430   2.3318   2.3375   2.3559   2.3710
     2.4393   2.4676   2.5197   2.5291   2.5602   2.5779   2.5928   2.6453
     2.6575   2.6895   2.7542   2.8136   2.8174   2.8852   2.8935   2.9371
     2.9592   3.1393   3.2154   3.2254   3.2907   3.3117   3.3499   3.3551
     3.4330   3.4826   3.5072   3.5366   3.5512   3.5737   3.5852   3.6106
     3.6650   3.6858   3.7541   3.7727   3.8100   3.8530   3.8614   3.8868
     3.9018   3.9262   3.9369   3.9549   4.0236   4.0271   4.0464   4.0552
     4.0639   4.0829   4.1073   4.1595   4.1874   4.1999   4.2161   4.2362
     4.2452   4.2576   4.2647   4.2896   4.3102   4.3113   4.3353   4.3811
     4.3901   4.4131   4.4286   4.4387   4.4752   4.5484   4.5769   4.5779
     4.5904   4.6015   4.6309   4.6545   4.6567   4.6746   4.6991   4.7093
     4.7614   4.8105   4.8240   4.8572   4.9029   4.9058   4.9425   4.9488
     4.9813   4.9957   5.0042   5.0271   5.0473   5.0798   5.1039   5.1194
     5.1788   5.1882   5.2405   5.2450   5.2748   5.3614   5.3902   5.4136
     5.4331   5.4398   5.4520   5.4761   5.4819   5.5326   5.5463   5.5660
     5.6087   5.6463   5.6703   5.6973   5.7385   5.7525   5.7868   5.8087
     5.8309   5.8442   5.8990   5.9033   5.9220   5.9414   5.9698   5.9795
     6.0057   6.0070   6.0212   6.0401   6.0467   6.0816   6.1021   6.1390
     6.1404   6.1783   6.1950   6.1953   6.2034   6.2224   6.2351   6.2440
     6.2653   6.3062   6.3109   6.3444   6.3792   6.3872   6.4065   6.4180
     6.4306   6.4548   6.4598   6.4615   6.5130   6.5159   6.5594   6.5635
     6.6244   6.6392   6.6870   6.7007   6.7130   6.7900   6.8086   6.9039
     7.0370   7.0451   7.3472   7.6137   7.6837   8.1151   8.4013   8.5025
     8.9269   9.0183   9.0665   9.2275   9.4169   9.6258   9.8884   9.9212
    10.0438  10.2489  10.4616  10.5331  10.6278  10.8577  11.0518  11.0607
    11.3894  11.5827  11.8925  12.0837  12.0927  12.4525  12.5623  12.5974
    13.0402  13.1129  13.2452  13.3640  13.4833  13.6399  13.6608  13.7668
    13.9448  14.0391  14.0903  14.3831  14.4045  14.5921

          k = 0.2083 0.4330 0.0000 ( 27535 PWs)   bands (ev):

     0.3411   0.6460   1.0889   1.5162   1.5722   1.6072   1.7332   1.8179
     1.8301   1.9504   1.9605   2.0368   2.0715   2.0771   2.1040   2.1151
     2.1957   2.2403   2.2548   2.2913   2.3039   2.3572   2.3868   2.3922
     2.4433   2.4562   2.4620   2.4842   2.4883   2.5106   2.5702   2.5776
     2.6370   2.7007   2.7075   2.7508   2.7938   2.8262   2.8356   2.9982
     3.0534   3.1083   3.1700   3.1813   3.2440   3.2731   3.3154   3.3872
     3.3901   3.4220   3.4611   3.4900   3.4902   3.5388   3.5668   3.5912
     3.6492   3.6890   3.6930   3.7070   3.7238   3.8058   3.8414   3.8596
     3.8802   3.8989   3.9214   3.9234   3.9561   3.9908   4.0172   4.0244
     4.0275   4.0681   4.0734   4.0782   4.1449   4.1598   4.1891   4.2093
     4.2400   4.2412   4.2595   4.2871   4.3072   4.3393   4.3526   4.3722
     4.3827   4.4134   4.4164   4.4576   4.4869   4.5210   4.5399   4.5412
     4.5836   4.6418   4.6596   4.7016   4.7479   4.7535   4.7588   4.8232
     4.8427   4.8458   4.8583   4.9195   4.9280   4.9426   4.9566   4.9811
     5.0153   5.0261   5.0809   5.1091   5.1557   5.1770   5.1770   5.1965
     5.2199   5.2274   5.2585   5.3038   5.3066   5.3369   5.3418   5.3971
     5.4366   5.4788   5.4945   5.5344   5.5449   5.5725   5.6119   5.6212
     5.6415   5.6565   5.7299   5.7754   5.8016   5.8481   5.8671   5.8841
     5.9186   5.9499   5.9626   5.9862   6.0087   6.0167   6.0296   6.0391
     6.0422   6.0611   6.0683   6.0957   6.1004   6.1253   6.1344   6.1424
     6.1688   6.1739   6.1868   6.2009   6.2193   6.2259   6.2364   6.2708
     6.2724   6.2784   6.3100   6.3182   6.3510   6.3515   6.3843   6.3900
     6.4030   6.4168   6.4411   6.4436   6.4469   6.4765   6.4962   6.5096
     6.5483   6.5944   6.6020   6.6635   6.6835   6.7189   6.7233   6.8596
     6.9702   7.1304   7.2892   7.6104   7.7387   8.0674   8.1678   8.3636
     8.3999   8.4579   8.7158   8.9063   8.9644   9.3243   9.4101   9.7509
     9.9372  10.1395  10.4984  10.5359  10.7904  10.9617  10.9863  11.0082
    11.3909  11.6672  11.7687  11.8456  12.1726  12.2999  12.4106  12.4399
    12.6152  12.6152  12.9277  13.1748  13.4026  13.5714  13.6318  13.7269
    13.9243  14.1861  14.2809  14.2859  14.7179  14.8069

          k = 0.2083 0.5292 0.0000 ( 27542 PWs)   bands (ev):

     0.7500   1.0260   1.1687   1.4024   1.4232   1.6065   1.6936   1.7254
     1.8536   1.8898   1.9310   1.9417   1.9645   2.0855   2.0886   2.1379
     2.1458   2.2167   2.2307   2.2416   2.2892   2.3437   2.3478   2.4010
     2.4163   2.4283   2.4890   2.5323   2.5393   2.5924   2.6072   2.6192
     2.7087   2.7164   2.7551   2.7676   2.7828   2.8833   2.9313   2.9869
     3.0697   3.0935   3.1564   3.1812   3.1870   3.2477   3.2932   3.3115
     3.3517   3.3738   3.4162   3.4311   3.4649   3.4766   3.4911   3.5397
     3.5792   3.6007   3.6471   3.6665   3.6855   3.7885   3.8183   3.8486
     3.8517   3.8588   3.8928   3.9278   3.9449   3.9643   3.9700   3.9986
     4.0122   4.0298   4.0502   4.0633   4.1248   4.1370   4.1615   4.1702
     4.2007   4.2147   4.2265   4.2487   4.2595   4.2693   4.2951   4.3763
     4.4082   4.4103   4.4217   4.4415   4.5047   4.5298   4.5304   4.5553
     4.5664   4.6623   4.7196   4.7582   4.7701   4.8220   4.8356   4.8476
     4.8559   4.9084   4.9119   4.9237   4.9407   4.9468   4.9553   5.0317
     5.0458   5.0845   5.1316   5.1886   5.1890   5.2191   5.2298   5.2690
     5.2772   5.2800   5.3156   5.3591   5.3753   5.3885   5.4189   5.4617
     5.4625   5.4786   5.5268   5.5472   5.5566   5.5966   5.6532   5.6634
     5.6823   5.6872   5.7401   5.7672   5.7945   5.8126   5.8176   5.8330
     5.8777   5.9061   5.9145   5.9747   5.9897   5.9985   6.0244   6.0404
     6.0638   6.0645   6.0911   6.1082   6.1110   6.1271   6.1463   6.1586
     6.1607   6.1645   6.1900   6.1922   6.2251   6.2356   6.2408   6.2419
     6.2638   6.2772   6.2773   6.2898   6.3134   6.3476   6.3517   6.3914
     6.4414   6.4453   6.4522   6.4690   6.5036   6.5071   6.5628   6.5722
     6.5778   6.5938   6.6578   6.6616   6.6765   6.7983   6.9866   7.1044
     7.2570   7.2669   7.4133   7.5113   7.6025   7.7092   7.9025   7.9884
     8.0957   8.2153   8.2777   8.7360   8.9294   9.0117   9.1528   9.6531
     9.8855  10.0482  10.2264  10.5775  10.9050  11.1808  11.2913  11.3186
    11.5142  11.5187  11.7287  11.8406  11.9628  12.0150  12.3029  12.3516
    12.3763  12.5733  12.6339  12.9214  13.2235  13.4746  13.5122  13.7994
    13.8408  14.0124  14.1790  14.2950  14.5004  14.5213

          k = 0.2917 0.0481 0.0000 ( 27533 PWs)   bands (ev):

    -0.3681  -0.0349   0.4510   1.0199   1.4555   1.5407   1.6540   1.8360
     1.9269   1.9356   1.9443   1.9685   2.1027   2.2044   2.2445   2.3261
     2.3929   2.5203   2.5522   2.5642   2.5777   2.5963   2.6683   2.6989
     2.7747   2.7841   2.7956   2.8213   2.8532   2.8982   2.9215   2.9350
     2.9424   3.0440   3.0637   3.0967   3.1117   3.1539   3.1655   3.1789
     3.2335   3.2559   3.2801   3.3021   3.3251   3.3273   3.3482   3.4155
     3.4273   3.4531   3.4656   3.4692   3.4858   3.5125   3.5211   3.5939
     3.6198   3.6487   3.6888   3.6941   3.6943   3.7453   3.7760   3.8333
     3.8503   3.8563   3.8647   3.8942   3.8962   3.9157   3.9349   3.9770
     3.9803   4.0122   4.0330   4.0456   4.0603   4.0902   4.1008   4.1094
     4.1254   4.1567   4.1719   4.1818   4.1935   4.1967   4.2039   4.2606
     4.2651   4.2824   4.3028   4.3275   4.3627   4.3824   4.3900   4.4017
     4.4111   4.4379   4.4436   4.4577   4.4625   4.5956   4.6096   4.6160
     4.6227   4.6962   4.7259   4.7631   4.8225   4.8454   4.8498   4.9045
     4.9125   4.9634   4.9718   5.0019   5.0084   5.0357   5.0756   5.0936
     5.1156   5.1205   5.1406   5.1796   5.1827   5.2002   5.2230   5.2243
     5.2860   5.2986   5.3323   5.3364   5.3571   5.3582   5.3917   5.4380
     5.4536   5.5073   5.5216   5.5357   5.5510   5.5816   5.6357   5.6493
     5.6991   5.7261   5.7372   5.8222   5.8334   5.8767   5.9151   5.9196
     5.9646   5.9674   5.9962   6.0444   6.0554   6.0741   6.0750   6.0943
     6.1071   6.1115   6.1513   6.1581   6.1706   6.1848   6.1869   6.2080
     6.2288   6.2375   6.2453   6.2465   6.2554   6.2674   6.2717   6.2856
     6.2973   6.3190   6.3331   6.3534   6.3785   6.4643   6.4770   6.5115
     6.5384   6.5736   6.6083   6.6173   6.6336   6.6522   6.8436   7.0696
     7.3903   7.7620   8.1871   8.5059   8.9504   9.1542   9.2747   9.4316
     9.5968   9.8072  10.0618  10.1081  10.1143  10.3164  10.4054  10.5700
    10.6038  10.7539  10.8439  10.9612  10.9989  11.2135  11.2962  11.3198
    11.4309  11.5299  11.7079  11.8932  12.1669  12.2804  12.3413  12.6966
    12.9219  12.9953  13.0180  13.0223  13.1725  13.3817  13.5638  13.6371
    13.8096  13.9914  14.0033  14.0991  14.2488  14.3107

          k = 0.2917 0.1443 0.0000 ( 27530 PWs)   bands (ev):

    -0.2734   0.0570   0.5388   1.1032   1.4452   1.6202   1.6548   1.9077
     1.9173   1.9601   2.0072   2.0273   2.1382   2.1892   2.2043   2.3474
     2.4340   2.4352   2.4509   2.5195   2.5381   2.5685   2.6042   2.6252
     2.6463   2.6556   2.7143   2.8170   2.8212   2.8306   2.8465   2.8945
     2.9347   2.9367   2.9851   3.0256   3.0585   3.0860   3.1119   3.1637
     3.2038   3.2685   3.2935   3.3121   3.3450   3.3704   3.3712   3.4124
     3.4393   3.4560   3.4617   3.5057   3.5392   3.5590   3.5597   3.6360
     3.6484   3.6622   3.6768   3.6882   3.7305   3.7387   3.7486   3.7994
     3.8001   3.8452   3.8994   3.9117   3.9282   3.9460   3.9840   3.9867
     4.0504   4.0854   4.1023   4.1093   4.1227   4.1404   4.1424   4.1626
     4.1958   4.2083   4.2323   4.2448   4.2614   4.2784   4.2796   4.2985
     4.2990   4.3070   4.3331   4.3445   4.3605   4.3655   4.3886   4.3964
     4.4484   4.4568   4.4754   4.5010   4.5580   4.5775   4.6041   4.6218
     4.6456   4.7055   4.7457   4.7706   4.7767   4.7883   4.8287   4.8644
     4.8846   4.8862   4.9386   4.9500   4.9934   5.0205   5.0339   5.0606
     5.0777   5.1208   5.1408   5.1765   5.1883   5.2045   5.2365   5.2655
     5.2810   5.3082   5.3305   5.3408   5.3713   5.3908   5.4251   5.4411
     5.4770   5.5006   5.5014   5.5484   5.5625   5.5699   5.6403   5.6446
     5.7067   5.7253   5.7644   5.8030   5.8063   5.8301   5.8640   5.8655
     5.8750   5.9470   5.9604   6.0248   6.0376   6.0389   6.0700   6.0847
     6.0976   6.0984   6.1143   6.1284   6.1583   6.1746   6.2031   6.2202
     6.2307   6.2491   6.2508   6.2662   6.2771   6.2790   6.2877   6.3088
     6.3220   6.3433   6.3656   6.3890   6.3987   6.4822   6.4917   6.5132
     6.5535   6.5664   6.6206   6.6332   6.6437   6.6862   6.9250   7.0656
     7.4940   7.7766   8.1507   8.2736   8.3698   8.5302   8.6314   9.1128
     9.2912   9.6032   9.8273   9.8984  10.0793  10.2287  10.2738  10.5215
    10.6217  10.7042  10.8690  11.0464  11.1559  11.2897  11.3936  11.4103
    11.5979  11.8269  11.8561  11.9337  12.2274  12.3665  12.3864  12.6325
    12.9059  12.9941  13.0565  13.1328  13.3113  13.3789  13.4739  13.6656
    13.9658  13.9691  14.0720  14.2727  14.3066  14.3896

          k = 0.2917 0.2406 0.0000 ( 27522 PWs)   bands (ev):

    -0.0867   0.2374   0.7098   1.2644   1.4408   1.6633   1.7736   1.9117
     1.9508   2.0465   2.1078   2.1414   2.1657   2.1976   2.2006   2.2930
     2.3160   2.3262   2.3856   2.4619   2.4851   2.5088   2.5096   2.5371
     2.5512   2.5991   2.6824   2.6916   2.7308   2.7657   2.7811   2.8203
     2.8367   2.8721   2.8949   2.9232   2.9794   2.9984   3.0497   3.1142
     3.1929   3.1967   3.2507   3.2640   3.3063   3.3321   3.3686   3.4056
     3.4541   3.4594   3.4862   3.4879   3.5508   3.5822   3.5853   3.5952
     3.6084   3.6440   3.6951   3.7272   3.7467   3.7602   3.8196   3.8576
     3.8904   3.8915   3.9216   3.9388   3.9711   4.0351   4.0531   4.0547
     4.0663   4.0916   4.1083   4.1355   4.1385   4.1724   4.1753   4.1854
     4.2118   4.2337   4.2620   4.2644   4.2897   4.3138   4.3409   4.3498
     4.3581   4.3780   4.3813   4.4095   4.4364   4.4469   4.4591   4.4716
     4.5281   4.5542   4.5638   4.5805   4.6095   4.6279   4.6328   4.6457
     4.6842   4.7020   4.7021   4.7123   4.7355   4.7759   4.7951   4.8115
     4.8460   4.8835   4.9264   4.9600   4.9690   5.0078   5.0130   5.0386
     5.0690   5.1177   5.1239   5.1921   5.2007   5.2364   5.2564   5.2734
     5.3489   5.3591   5.3631   5.3940   5.4213   5.4353   5.4445   5.4748
     5.4970   5.5277   5.5320   5.5619   5.5752   5.5883   5.6168   5.6323
     5.6589   5.6673   5.6847   5.7683   5.7793   5.8158   5.8263   5.8399
     5.8635   5.8669   5.9262   5.9812   5.9828   6.0411   6.0449   6.0790
     6.0989   6.1183   6.1464   6.1537   6.1744   6.1852   6.1858   6.2165
     6.2225   6.2275   6.2576   6.2664   6.2811   6.2994   6.3324   6.3324
     6.3452   6.3683   6.4065   6.4121   6.4573   6.4819   6.5284   6.5324
     6.5520   6.5601   6.6255   6.6376   6.6616   6.7075   7.0721   7.0726
     7.4951   7.6057   7.6510   7.8156   7.9145   8.2540   8.5744   8.5798
     9.0193   9.1774   9.3185   9.4512   9.7538   9.9025   9.9146  10.1070
    10.4931  10.5536  10.7646  10.8739  11.0010  11.0828  11.2965  11.5453
    11.7826  12.0280  12.1211  12.3493  12.4782  12.4982  12.6507  12.9366
    12.9762  13.0761  13.1669  13.2626  13.3142  13.5243  13.7067  13.8267
    13.9555  14.1420  14.3737  14.5244  14.6822  14.7029

          k = 0.2917 0.3368 0.0000 ( 27531 PWs)   bands (ev):

     0.1857   0.4985   0.9539   1.4598   1.4902   1.6924   1.8935   1.9301
     1.9844   2.0383   2.1106   2.1114   2.1857   2.2150   2.2356   2.2485
     2.3181   2.3328   2.3628   2.3654   2.3756   2.4306   2.4337   2.4671
     2.5627   2.5868   2.5915   2.6207   2.6454   2.6636   2.6784   2.7284
     2.7644   2.7659   2.8679   2.8938   2.9182   2.9537   2.9892   3.0778
     3.0835   3.1696   3.1772   3.2461   3.2821   3.2915   3.3228   3.3420
     3.4119   3.4750   3.4861   3.5107   3.5185   3.5225   3.5660   3.5859
     3.6239   3.6613   3.6743   3.6991   3.7445   3.8140   3.8360   3.8493
     3.8922   3.8976   3.9201   3.9649   3.9944   3.9944   4.0213   4.0369
     4.0444   4.0703   4.0853   4.1066   4.1252   4.1358   4.1951   4.2249
     4.2320   4.2466   4.2530   4.2795   4.2897   4.3137   4.3321   4.3391
     4.3693   4.3986   4.4065   4.4400   4.4492   4.5035   4.5198   4.5361
     4.5845   4.5869   4.5951   4.6079   4.6435   4.6646   4.6740   4.6880
     4.7155   4.7319   4.7529   4.7843   4.8159   4.8616   4.8703   4.8793
     4.8953   4.9506   4.9569   4.9824   5.0013   5.0314   5.0745   5.0996
     5.1380   5.1401   5.1424   5.1937   5.2513   5.2676   5.2741   5.3285
     5.3517   5.3690   5.3696   5.4301   5.4757   5.4836   5.4863   5.5078
     5.5354   5.5667   5.5824   5.6237   5.6731   5.6742   5.6836   5.7019
     5.7040   5.7511   5.7619   5.7850   5.7939   5.8220   5.8338   5.8488
     5.8632   5.8958   5.9249   5.9517   5.9726   6.0352   6.0446   6.0599
     6.0743   6.1250   6.1338   6.1505   6.1665   6.1853   6.2043   6.2166
     6.2176   6.2346   6.2435   6.2507   6.2752   6.2945   6.3223   6.3397
     6.3791   6.3867   6.4066   6.4450   6.4489   6.4772   6.5004   6.5282
     6.5565   6.5714   6.5801   6.6467   6.6887   6.7861   6.9631   7.0525
     7.1247   7.1978   7.2156   7.6810   7.8626   7.8908   8.4281   8.4910
     8.5655   8.7093   8.7555   8.9832   9.3042   9.4022   9.6120   9.8262
    10.2202  10.2961  10.4217  10.8097  11.1012  11.1538  11.2808  11.2938
    11.4191  11.8596  12.1904  12.3051  12.3904  12.6586  12.7769  12.8747
    13.1662  13.4157  13.5303  13.7485  13.7663  13.9634  14.0431  14.2049
    14.2492  14.3758  14.4868  14.5493  14.5897  14.7384

          k = 0.2917 0.4330 0.0000 ( 27509 PWs)   bands (ev):

     0.5325   0.8262   1.2518   1.5139   1.7083   1.7531   1.7534   1.8920
     1.9130   1.9788   2.0176   2.0827   2.1292   2.1448   2.1527   2.2326
     2.3010   2.3164   2.3279   2.3572   2.4181   2.4609   2.4810   2.5224
     2.5239   2.5407   2.5660   2.5991   2.6022   2.6063   2.6513   2.6853
     2.7793   2.7948   2.8136   2.8252   2.8670   2.9314   2.9513   3.0896
     3.1080   3.1388   3.1648   3.2288   3.2319   3.2649   3.2905   3.3383
     3.3444   3.3849   3.4266   3.4528   3.4670   3.5106   3.5119   3.5479
     3.6049   3.6277   3.6587   3.6833   3.6976   3.7371   3.7526   3.7721
     3.8402   3.8817   3.8834   3.9064   3.9425   3.9833   3.9837   4.0156
     4.0209   4.0319   4.0679   4.0773   4.0803   4.1305   4.1570   4.1588
     4.1967   4.2176   4.2241   4.2477   4.2739   4.2765   4.3113   4.3151
     4.3203   4.3745   4.3776   4.4474   4.4713   4.4713   4.5327   4.5350
     4.5451   4.5884   4.6111   4.6812   4.7222   4.7248   4.7482   4.7791
     4.7892   4.8659   4.8761   4.8900   4.9351   4.9600   4.9611   4.9695
     4.9781   4.9819   5.0012   5.0227   5.0701   5.1161   5.1382   5.1417
     5.1803   5.1922   5.2352   5.2411   5.2785   5.2842   5.3147   5.3512
     5.3680   5.4081   5.4764   5.4766   5.4835   5.5017   5.6043   5.6070
     5.6090   5.6377   5.6461   5.6787   5.7058   5.7705   5.7821   5.7932
     5.8061   5.8253   5.8498   5.8680   5.8726   5.8743   5.9028   5.9345
     5.9627   5.9907   6.0010   6.0152   6.0402   6.0553   6.0712   6.0802
     6.1143   6.1178   6.1390   6.1589   6.1676   6.1731   6.1878   6.2090
     6.2336   6.2471   6.2604   6.2728   6.2735   6.2856   6.2936   6.3270
     6.3597   6.3941   6.4059   6.4067   6.4322   6.4496   6.4514   6.5061
     6.5227   6.5434   6.5662   6.5901   6.6063   6.6384   6.6895   6.7303
     6.9246   7.0481   7.2743   7.5485   7.7309   7.8007   7.9454   7.9758
     8.2576   8.2897   8.5465   8.5882   8.8935   9.1193   9.3417   9.6247
     9.7718  10.1322  10.2450  10.7223  10.7304  11.2131  11.2952  11.4933
    11.6754  11.8663  11.9903  12.2620  12.4262  12.4967  12.8154  12.8851
    13.0533  13.4296  13.5617  13.7754  13.7783  13.8455  13.9308  14.1194
    14.2921  14.4480  14.4557  14.8025  14.9457  14.9716

          k = 0.2917 0.5292 0.0000 ( 27525 PWs)   bands (ev):

     0.9340   1.1954   1.3531   1.5603   1.5752   1.6082   1.7427   1.8517
     1.8582   1.9865   2.0083   2.0150   2.0592   2.1097   2.1685   2.1984
     2.2246   2.2804   2.3080   2.3318   2.3550   2.4284   2.4666   2.4878
     2.5136   2.5477   2.5681   2.6211   2.6825   2.7236   2.7341   2.7666
     2.7883   2.8147   2.8467   2.8572   2.9033   2.9599   3.0563   3.0662
     3.0850   3.1119   3.1290   3.1881   3.2022   3.2065   3.2418   3.2568
     3.3072   3.3493   3.3797   3.3820   3.3984   3.4351   3.4415   3.4790
     3.5136   3.5388   3.6446   3.6673   3.6801   3.7212   3.7657   3.8068
     3.8188   3.8233   3.8526   3.8653   3.8953   3.9091   3.9291   3.9859
     3.9985   4.0210   4.0242   4.0515   4.0635   4.0672   4.1009   4.1348
     4.1586   4.1651   4.1878   4.1921   4.2580   4.2626   4.2646   4.2758
     4.3266   4.3719   4.4690   4.4877   4.4958   4.5346   4.5440   4.5613
     4.5685   4.6186   4.6694   4.6721   4.7176   4.7481   4.7574   4.7730
     4.7918   4.8212   4.9077   4.9280   4.9422   4.9477   5.0090   5.0174
     5.0351   5.0539   5.0857   5.1189   5.1599   5.1814   5.1836   5.2019
     5.2264   5.2468   5.3054   5.3311   5.3384   5.3493   5.3749   5.4318
     5.4455   5.4951   5.5246   5.5277   5.5522   5.5780   5.6047   5.6306
     5.6827   5.7127   5.7244   5.7354   5.7839   5.7906   5.8210   5.8410
     5.8497   5.8657   5.8926   5.8938   5.9183   5.9232   5.9366   5.9429
     5.9473   5.9800   5.9957   6.0048   6.0223   6.0350   6.0473   6.0593
     6.1057   6.1120   6.1375   6.1532   6.1662   6.1783   6.1947   6.2049
     6.2194   6.2256   6.2334   6.2558   6.2815   6.2909   6.3108   6.3240
     6.3400   6.3600   6.4024   6.4115   6.4346   6.4556   6.4580   6.4870
     6.5190   6.5435   6.5515   6.5612   6.6055   6.7524   6.8338   6.8498
     7.0252   7.0435   7.1384   7.3219   7.4503   7.5049   7.5594   7.6753
     7.7771   8.3178   8.3276   8.4071   8.5515   9.1959   9.2041   9.3501
     9.5610  10.0888  10.2361  10.4276  10.6504  10.9786  11.5651  11.6562
    11.7445  11.8667  12.2111  12.3797  12.5293  12.6837  12.7820  12.7862
    12.7924  13.1707  13.2656  13.6175  13.7551  13.7608  13.8822  13.9266
    14.1100  14.3665  14.5945  14.6730  14.6807  15.1250

          k = 0.3750 0.0481 0.0000 ( 27554 PWs)   bands (ev):

    -0.0847   0.2399   0.7139   1.0430   1.2720   1.2944   1.6524   1.7874
     2.0638   2.0744   2.1585   2.1597   2.1812   2.2209   2.3864   2.4492
     2.4967   2.5873   2.5947   2.6201   2.6956   2.7210   2.7239   2.7396
     2.7626   2.7938   2.8031   2.8652   2.9061   2.9331   2.9372   2.9946
     3.0233   3.0251   3.0849   3.1269   3.1436   3.1691   3.1888   3.2307
     3.2327   3.2595   3.2837   3.2873   3.2958   3.3240   3.3288   3.3630
     3.3983   3.4114   3.4520   3.4593   3.4712   3.4893   3.5049   3.5224
     3.5334   3.5776   3.5963   3.6613   3.6839   3.6933   3.7161   3.7228
     3.8376   3.8471   3.8618   3.8813   3.8854   3.9088   3.9340   3.9533
     3.9582   3.9930   4.0334   4.0459   4.0544   4.0973   4.1063   4.1106
     4.1486   4.1752   4.1977   4.2021   4.2039   4.2122   4.2585   4.2722
     4.2964   4.2984   4.3329   4.3422   4.3579   4.3788   4.4071   4.4399
     4.4510   4.4901   4.4993   4.5610   4.5977   4.6016   4.6044   4.6297
     4.6470   4.6525   4.6795   4.7168   4.7570   4.7936   4.8684   4.9001
     4.9239   4.9366   4.9395   4.9558   4.9785   5.0069   5.0097   5.0296
     5.0610   5.0615   5.0759   5.1054   5.1363   5.1587   5.1701   5.1785
     5.2168   5.2581   5.2647   5.2734   5.2993   5.3294   5.3530   5.3970
     5.4213   5.4286   5.4434   5.5064   5.5149   5.5439   5.5668   5.5884
     5.6054   5.6585   5.6682   5.7093   5.7093   5.7301   5.7329   5.7643
     5.8487   5.8939   5.9094   5.9294   5.9374   5.9465   5.9713   5.9955
     6.0279   6.0558   6.0594   6.0673   6.0915   6.1020   6.1193   6.1407
     6.1457   6.1471   6.1738   6.1743   6.1895   6.1932   6.2011   6.2302
     6.2438   6.2517   6.2744   6.3201   6.3245   6.3370   6.3379   6.4444
     6.4763   6.5424   6.5522   6.5977   6.6199   6.6489   6.7404   7.0981
     7.3599   7.7232   8.0552   8.5655   8.8098   9.2766   9.5097   9.6725
     9.8009   9.9117  10.1948  10.2083  10.3818  10.5683  10.5810  10.6072
    10.6579  10.9100  10.9660  11.0596  11.1383  11.2196  11.2813  11.4245
    11.5623  11.5724  12.0165  12.1813  12.2920  12.3726  12.4708  12.5364
    12.6541  12.9504  13.1358  13.1710  13.2721  13.3957  13.5091  13.5856
    13.7303  13.8723  14.1338  14.1410  14.3031  14.3834

          k = 0.3750 0.1443 0.0000 ( 27559 PWs)   bands (ev):

     0.0043   0.3249   0.7924   1.0800   1.3257   1.3420   1.6657   1.8475
     2.0489   2.1096   2.1635   2.2131   2.2387   2.2535   2.3833   2.3941
     2.4659   2.4958   2.5441   2.5708   2.6276   2.6865   2.6938   2.6984
     2.7137   2.7414   2.8053   2.8103   2.8461   2.9026   2.9283   2.9486
     2.9533   2.9806   3.0350   3.1120   3.1265   3.1753   3.2017   3.2080
     3.2348   3.2638   3.2754   3.2909   3.3120   3.3200   3.3509   3.3759
     3.3960   3.4610   3.4656   3.4970   3.5009   3.5233   3.5478   3.5581
     3.5745   3.5949   3.6156   3.6270   3.6425   3.7046   3.7157   3.7502
     3.8005   3.8460   3.8781   3.9004   3.9095   3.9455   3.9865   3.9932
     4.0213   4.0472   4.0535   4.0747   4.1281   4.1352   4.1463   4.1817
     4.1946   4.2020   4.2059   4.2241   4.2246   4.2449   4.2476   4.2794
     4.2950   4.2976   4.3100   4.3281   4.3703   4.4198   4.4333   4.4657
     4.4722   4.4944   4.5159   4.5333   4.5557   4.5602   4.5824   4.6105
     4.6373   4.7124   4.7131   4.7491   4.7769   4.7824   4.8318   4.8545
     4.8774   4.8856   4.9024   4.9027   4.9622   4.9692   5.0144   5.0194
     5.0316   5.0634   5.0750   5.1109   5.1148   5.1465   5.1735   5.1948
     5.2255   5.2442   5.2711   5.2731   5.2920   5.3456   5.3728   5.3930
     5.3933   5.4460   5.4519   5.4709   5.5043   5.5264   5.5529   5.5879
     5.5891   5.6056   5.6473   5.6509   5.7180   5.7269   5.7280   5.7624
     5.7745   5.8010   5.8269   5.8846   5.9279   5.9373   5.9419   5.9672
     6.0023   6.0287   6.0391   6.0804   6.0935   6.0951   6.1300   6.1501
     6.1556   6.1710   6.1752   6.1923   6.2294   6.2347   6.2525   6.2741
     6.2767   6.2855   6.2857   6.3391   6.3691   6.3807   6.4226   6.4780
     6.5275   6.5731   6.5901   6.6007   6.6489   6.7045   6.7422   7.1620
     7.3784   7.7975   8.0867   8.4806   8.6022   8.7207   8.8355   9.0297
     9.4786   9.5628   9.6510   9.8360   9.8734  10.2578  10.2718  10.6971
    10.7011  10.8767  11.0595  11.2480  11.2710  11.4514  11.5711  11.6654
    11.8489  11.9852  12.1167  12.1274  12.4325  12.4787  12.5552  12.6274
    12.7827  12.9148  13.1106  13.2666  13.4973  13.5603  13.5722  13.7530
    13.7953  13.8777  14.1433  14.1830  14.2631  14.5589

          k = 0.3750 0.2406 0.0000 ( 27548 PWs)   bands (ev):

     0.1798   0.4920   0.9457   1.1543   1.3917   1.4778   1.7011   1.9641
     2.0199   2.1546   2.2041   2.2801   2.2942   2.3163   2.3668   2.3736
     2.3875   2.4082   2.4554   2.4930   2.5720   2.5901   2.6242   2.6379
     2.6848   2.7157   2.7329   2.7773   2.7929   2.8306   2.8610   2.8953
     2.9053   2.9192   2.9698   3.0294   3.0752   3.0916   3.1112   3.1707
     3.2249   3.2427   3.2739   3.3062   3.3099   3.3466   3.3578   3.4080
     3.4366   3.4469   3.4730   3.5053   3.5071   3.5224   3.5375   3.5529
     3.6103   3.6175   3.6215   3.6307   3.6918   3.7140   3.7635   3.7922
     3.8146   3.8542   3.8712   3.9522   3.9725   3.9763   4.0054   4.0234
     4.0335   4.0746   4.0928   4.1115   4.1484   4.1538   4.1833   4.1912
     4.1989   4.2082   4.2187   4.2227   4.2242   4.2313   4.2648   4.2863
     4.3122   4.3323   4.3964   4.4059   4.4127   4.4400   4.4610   4.4753
     4.4989   4.5141   4.5479   4.5822   4.6011   4.6068   4.6216   4.6341
     4.6785   4.6853   4.6905   4.7181   4.7267   4.7345   4.7582   4.8189
     4.8335   4.8432   4.9154   4.9274   4.9282   4.9471   5.0154   5.0323
     5.0508   5.0744   5.0861   5.1557   5.1705   5.1872   5.2280   5.2302
     5.2382   5.2443   5.3037   5.3206   5.3270   5.3479   5.3557   5.3767
     5.3921   5.4107   5.4675   5.4717   5.4986   5.5065   5.5273   5.5293
     5.5582   5.5779   5.6222   5.6239   5.6401   5.6967   5.7151   5.7517
     5.7611   5.7910   5.7941   5.8621   5.8750   5.9157   5.9291   5.9560
     5.9751   6.0466   6.0530   6.0608   6.1068   6.1081   6.1501   6.1563
     6.1564   6.1733   6.2016   6.2039   6.2369   6.2520   6.2609   6.3053
     6.3348   6.3348   6.3639   6.3810   6.4074   6.4421   6.5016   6.5103
     6.5376   6.5980   6.6075   6.6354   6.6615   6.7709   6.7859   7.2826
     7.4283   7.8111   7.8948   7.9625   8.1450   8.2864   8.6163   8.7692
     8.8812   8.9239   9.0264   9.4171   9.4748   9.6860  10.0033  10.1181
    10.2791  10.6121  10.8935  10.9457  11.2047  11.3916  11.6991  11.9504
    12.0396  12.2768  12.5523  12.5660  12.6026  12.6304  12.7606  12.9476
    13.1314  13.1404  13.4390  13.5177  13.5335  13.6480  13.7191  13.7474
    13.8627  14.3595  14.3650  14.4012  14.5810  14.6395

          k = 0.3750 0.3368 0.0000 ( 27509 PWs)   bands (ev):

     0.4365   0.7345   1.1652   1.2655   1.4964   1.6688   1.7712   2.0122
     2.1073   2.1308   2.2085   2.2132   2.2804   2.3009   2.3047   2.3517
[...]
     7.7940   7.9449   8.2671   8.5446   8.6217   8.7746   9.2503   9.4290
     9.5954   9.6425  10.3045  10.4573  10.5649  10.6672  11.3056  11.5770
    11.8828  12.0318  12.7614  12.7963  13.0298  13.0906  13.1712  13.4150
    13.5984  13.8513  13.8967  13.9946  14.0612  14.1688  14.2963  14.5530
    14.6000  14.7762  14.8869  14.9738  15.1663  15.5304

          k = 0.4583 0.0481 0.0000 ( 27552 PWs)   bands (ev):

     0.2537   0.5641   0.6350   0.9223   1.0167   1.3387   1.5526   1.8327
     2.0560   2.3085   2.3100   2.3404   2.3824   2.4119   2.4265   2.4685
     2.5430   2.5556   2.5688   2.5741   2.6550   2.6700   2.6806   2.6980
     2.8071   2.8123   2.8193   2.8600   2.9479   2.9504   3.0087   3.0439
     3.0691   3.0727   3.1160   3.1428   3.1674   3.1909   3.2022   3.2319
     3.2453   3.2926   3.2934   3.3252   3.3334   3.3506   3.3552   3.3818
     3.4061   3.4067   3.4423   3.4478   3.4484   3.4634   3.4759   3.4872
     3.4974   3.5023   3.5360   3.5689   3.5972   3.6018   3.7116   3.7504
     3.7732   3.7864   3.8051   3.8358   3.8434   3.8767   3.9004   3.9648
     3.9677   3.9917   4.0267   4.0683   4.0734   4.0986   4.1422   4.1588
     4.1674   4.1907   4.2040   4.2059   4.2273   4.2358   4.2442   4.2701
     4.2780   4.2941   4.3384   4.3567   4.3838   4.3928   4.4266   4.4421
     4.4514   4.4935   4.5198   4.6061   4.6219   4.6327   4.6362   4.6633
     4.6918   4.6976   4.7374   4.7608   4.8276   4.8288   4.8406   4.8508
     4.8788   4.9095   4.9275   4.9413   4.9620   4.9724   4.9837   4.9989
     5.0377   5.0466   5.0633   5.0883   5.1354   5.1419   5.1605   5.1933
     5.2015   5.2246   5.2383   5.2387   5.2622   5.2689   5.2874   5.3539
     5.3791   5.3898   5.4142   5.4513   5.4531   5.4536   5.4897   5.5109
     5.5352   5.5432   5.5768   5.6227   5.6280   5.6576   5.6753   5.6973
     5.7000   5.7110   5.8084   5.8245   5.8551   5.8655   5.8966   5.9400
     5.9595   5.9810   5.9958   5.9993   6.0533   6.0662   6.0671   6.0709
     6.0977   6.1090   6.1429   6.1521   6.1625   6.1679   6.1961   6.2144
     6.2210   6.2214   6.2839   6.3230   6.3288   6.3745   6.3753   6.4057
     6.4348   6.5197   6.5611   6.5812   6.5849   6.5922   6.8276   7.0631
     7.3798   7.6913   8.0609   8.4154   8.9281   9.2892   9.5702   9.8606
     9.8717  10.0902  10.2071  10.3143  10.3642  10.4598  10.6742  10.7283
    10.7897  10.8917  11.0332  11.1306  11.2359  11.2823  11.5722  11.6063
    11.7215  11.7565  11.8985  11.9043  12.2255  12.4558  12.6015  12.7294
    12.8884  13.0227  13.0515  13.1574  13.2145  13.3386  13.4604  13.5773
    13.8357  13.8771  13.8858  13.9139  14.4026  14.4130

          k = 0.4583 0.1443 0.0000 ( 27583 PWs)   bands (ev):

     0.3331   0.6379   0.6987   0.9788   1.0803   1.3799   1.6002   1.8465
     2.0786   2.2715   2.3060   2.3590   2.3682   2.4336   2.4613   2.4714
     2.4807   2.4996   2.5455   2.5732   2.6220   2.6594   2.6746   2.7227
     2.7801   2.7972   2.8114   2.8595   2.8873   2.9322   2.9382   2.9789
     3.0142   3.0691   3.0795   3.1258   3.1603   3.2006   3.2245   3.2393
     3.2676   3.2741   3.2746   3.3282   3.3343   3.3391   3.3673   3.3839
     3.4119   3.4218   3.4348   3.4617   3.4699   3.4764   3.4960   3.5087
     3.5315   3.5512   3.5684   3.5877   3.6230   3.6750   3.6998   3.7511
     3.7707   3.8157   3.8536   3.8763   3.8974   3.9149   3.9590   3.9938
     3.9948   4.0248   4.0548   4.0722   4.0728   4.1352   4.1455   4.1608
     4.1762   4.2032   4.2064   4.2131   4.2229   4.2262   4.2457   4.2463
     4.2669   4.2776   4.2987   4.3178   4.3305   4.3700   4.3805   4.4643
     4.4660   4.4882   4.5757   4.5986   4.6136   4.6409   4.6535   4.6600
     4.6840   4.6986   4.7195   4.7419   4.7759   4.8451   4.8508   4.8596
     4.8665   4.8749   4.8995   4.9257   4.9486   4.9865   4.9893   5.0080
     5.0355   5.0421   5.0659   5.1152   5.1158   5.1304   5.1489   5.1945
     5.2026   5.2108   5.2268   5.2341   5.2419   5.2611   5.2914   5.3205
     5.3305   5.3402   5.4087   5.4194   5.4294   5.4378   5.4495   5.4959
     5.5212   5.5359   5.5461   5.5985   5.6224   5.6324   5.6746   5.6915
     5.7057   5.7219   5.7454   5.7726   5.7859   5.8196   5.8362   5.9146
     5.9469   5.9561   5.9826   6.0108   6.0170   6.0249   6.0926   6.1045
     6.1087   6.1136   6.1458   6.1626   6.2052   6.2053   6.2600   6.2750
     6.2832   6.2973   6.3195   6.3648   6.3791   6.3893   6.4472   6.4601
     6.4984   6.5171   6.5998   6.6194   6.6302   6.6428   6.8544   7.0848
     7.4303   7.7313   8.1142   8.4531   8.7953   8.9362   9.0778   9.1197
     9.2794   9.4350   9.4446   9.8411  10.0122  10.1379  10.4073  10.4494
    10.7170  11.1102  11.2247  11.3202  11.4990  11.5990  11.7603  11.7671
    11.8739  12.0287  12.1876  12.2589  12.3868  12.6147  12.7644  12.7787
    12.9157  13.1300  13.1922  13.2289  13.3026  13.4521  13.6087  13.7397
    13.8620  14.0040  14.0376  14.1447  14.3418  14.4549

          k = 0.4583 0.2406 0.0000 ( 27580 PWs)   bands (ev):

     0.4900   0.7833   0.8244   1.0910   1.2051   1.4637   1.6938   1.8813
     2.1291   2.2342   2.3294   2.3449   2.3764   2.4122   2.4230   2.4282
     2.4839   2.5136   2.5647   2.5801   2.5881   2.5982   2.6208   2.7149
     2.7267   2.7429   2.7810   2.8147   2.8345   2.8555   2.8595   2.9373
     2.9568   3.0113   3.0804   3.0828   3.1307   3.1430   3.1966   3.2089
     3.2250   3.2283   3.2674   3.3245   3.3292   3.3732   3.3732   3.4096
     3.4347   3.4390   3.4732   3.4748   3.4962   3.5150   3.5382   3.5580
     3.5710   3.5765   3.6017   3.6252   3.6620   3.6962   3.7209   3.7344
     3.7459   3.7905   3.8493   3.9044   3.9166   3.9308   3.9785   3.9924
     4.0284   4.0391   4.0914   4.0970   4.1142   4.1297   4.1639   4.1651
     4.1784   4.1812   4.1995   4.2101   4.2187   4.2317   4.2373   4.2502
     4.2580   4.2678   4.2827   4.3281   4.3560   4.3720   4.4267   4.4296
     4.4625   4.4630   4.5662   4.5771   4.5910   4.6080   4.6522   4.6669
     4.6844   4.7037   4.7457   4.7790   4.7975   4.8282   4.8302   4.8586
     4.8860   4.8884   4.8946   4.9464   4.9648   4.9812   5.0148   5.0229
     5.0424   5.0587   5.0734   5.1337   5.1353   5.1488   5.1612   5.1619
     5.2044   5.2072   5.2287   5.2392   5.2425   5.2463   5.2834   5.3122
     5.3448   5.3560   5.3953   5.3992   5.4319   5.4344   5.4566   5.4744
     5.4747   5.5325   5.5362   5.5644   5.5681   5.6222   5.6458   5.6473
     5.6860   5.7433   5.7498   5.7631   5.7725   5.7983   5.8334   5.8768
     5.9110   5.9470   5.9689   5.9780   6.0567   6.0737   6.0894   6.1079
     6.1081   6.1407   6.1580   6.1657   6.2140   6.2191   6.3310   6.3375
     6.3622   6.3651   6.3833   6.3851   6.4165   6.4528   6.4785   6.5017
     6.5365   6.5482   6.6349   6.6373   6.6820   6.6919   6.9342   7.1470
     7.5255   7.8062   8.1132   8.1926   8.2980   8.4239   8.5151   8.6488
     8.6701   8.9666   9.0637   9.2986   9.3147   9.6973   9.8241  10.2245
    10.2644  10.5521  10.6809  11.0862  11.4508  11.5488  11.8310  12.0005
    12.2786  12.3560  12.7414  12.7790  12.8931  12.9050  13.0224  13.0937
    13.2487  13.2939  13.4404  13.4711  13.5233  13.7599  13.8086  13.9335
    14.0480  14.1247  14.1579  14.2431  14.5566  14.6063

          k = 0.4583 0.3368 0.0000 ( 27527 PWs)   bands (ev):

     0.7195   0.9952   1.0079   1.2569   1.3853   1.5911   1.8291   1.9455
     2.2125   2.2302   2.2906   2.3019   2.3253   2.3580   2.3991   2.4063
     2.4263   2.4603   2.4857   2.5376   2.5758   2.5986   2.6352   2.6614
     2.6942   2.7166   2.7451   2.7601   2.7757   2.8066   2.8371   2.8609
     2.9118   2.9196   3.0220   3.0566   3.0676   3.0851   3.1110   3.1802
     3.1988   3.2124   3.2233   3.2629   3.3167   3.3475   3.3607   3.3759
     3.4138   3.4388   3.4643   3.4860   3.5063   3.5187   3.5390   3.5920
     3.5983   3.6211   3.6244   3.6260   3.6934   3.7151   3.7190   3.7305
     3.7770   3.8107   3.8253   3.8557   3.8751   3.9226   3.9246   4.0057
     4.0126   4.0392   4.0686   4.0857   4.0979   4.1203   4.1352   4.1425
     4.1624   4.1711   4.1971   4.1988   4.1998   4.2142   4.2308   4.2320
     4.2388   4.2785   4.3153   4.3447   4.3626   4.3895   4.4066   4.4344
     4.4842   4.4912   4.5225   4.5408   4.5501   4.6397   4.6476   4.6860
     4.6991   4.7447   4.7651   4.8060   4.8113   4.8236   4.8723   4.8739
     4.8800   4.9186   4.9535   4.9915   4.9932   5.0341   5.0607   5.0784
     5.0866   5.1213   5.1513   5.1553   5.1854   5.1902   5.1909   5.2221
     5.2321   5.2585   5.2645   5.2888   5.3166   5.3274   5.3314   5.3761
     5.3816   5.3953   5.4132   5.4463   5.4580   5.4594   5.4952   5.5089
     5.5186   5.5557   5.5774   5.5941   5.6047   5.6457   5.6588   5.6789
     5.7126   5.7301   5.7695   5.7770   5.8073   5.8107   5.8585   5.8603
     5.9025   5.9475   5.9583   5.9639   6.0533   6.0733   6.1089   6.1236
     6.1398   6.1509   6.1822   6.1863   6.2335   6.2469   6.2978   6.3454
     6.3764   6.3865   6.3943   6.4092   6.4486   6.4781   6.4782   6.5176
     6.5466   6.5652   6.6061   6.6375   6.6973   6.7466   7.0628   7.2577
     7.5291   7.5833   7.6862   7.8153   7.8495   7.8704   8.0012   8.2137
     8.3496   8.4064   8.6487   8.7882   9.1465   9.2313   9.4964   9.5763
    10.0040  10.2982  10.3938  10.5645  10.9349  11.2966  11.6655  11.9310
    12.0634  12.3148  12.8735  13.1006  13.1795  13.2270  13.2587  13.3788
    13.5034  13.7657  13.9329  13.9392  14.0189  14.0693  14.2311  14.3180
    14.3737  14.3984  14.4227  14.7677  14.9168  14.9201

          k = 0.4583 0.4330 0.0000 ( 27524 PWs)   bands (ev):

     1.0131   1.2410   1.2640   1.4719   1.6100   1.7607   1.9944   2.0411
     2.0650   2.0841   2.1753   2.2537   2.2539   2.2722   2.2973   2.3272
     2.4027   2.4253   2.4503   2.5020   2.5439   2.5949   2.5973   2.6771
     2.6811   2.6944   2.7599   2.7747   2.7762   2.8073   2.8325   2.8377
     2.8537   2.8696   2.9299   2.9462   2.9961   3.0356   3.0823   3.0844
     3.1369   3.1782   3.1825   3.2421   3.2740   3.3072   3.3116   3.3143
     3.3603   3.3845   3.4237   3.4607   3.4793   3.5336   3.5473   3.5556
     3.6221   3.6273   3.6412   3.6611   3.6914   3.7078   3.7385   3.7626
     3.7795   3.8159   3.8362   3.8387   3.8623   3.8700   3.9442   3.9453
     3.9551   3.9987   4.0082   4.0266   4.0819   4.1113   4.1158   4.1400
     4.1464   4.1517   4.1689   4.1853   4.1980   4.2165   4.2290   4.2328
     4.2764   4.2881   4.2985   4.3106   4.3689   4.3805   4.3887   4.4333
     4.4538   4.4720   4.4946   4.5213   4.5235   4.6015   4.6546   4.6770
     4.7063   4.7099   4.7590   4.7699   4.8298   4.8758   4.9087   4.9277
     4.9633   4.9657   4.9926   5.0063   5.0293   5.0721   5.0993   5.1464
     5.1482   5.1584   5.1954   5.2237   5.2459   5.2525   5.2837   5.3125
     5.3245   5.3284   5.3554   5.3616   5.3876   5.4127   5.4260   5.4272
     5.4774   5.4824   5.5099   5.5524   5.5848   5.5932   5.6084   5.6328
     5.6373   5.6382   5.6656   5.6942   5.6947   5.7360   5.7459   5.7687
     5.7740   5.7973   5.8219   5.8691   5.8720   5.9258   5.9282   5.9440
     5.9481   5.9752   5.9829   6.0282   6.0329   6.0717   6.1352   6.1605
     6.1771   6.1904   6.2055   6.2084   6.2164   6.2565   6.2818   6.2866
     6.2970   6.3426   6.3544   6.3948   6.4004   6.4538   6.4617   6.4894
     6.4934   6.5403   6.5435   6.6072   6.7427   6.8482   6.9991   7.0641
     7.1196   7.2419   7.3240   7.3246   7.3415   7.5136   7.5805   7.8222
     8.0154   8.2148   8.2562   8.5500   8.8003   9.0923   9.1201   9.4482
     9.6589   9.9827  10.1754  10.4915  10.6180  10.9128  11.3090  11.6359
    12.0816  12.4923  12.5811  12.9114  13.0214  13.2738  13.4202  13.6769
    13.7501  14.1161  14.1999  14.2477  14.4647  14.6045  14.6714  14.7205
    14.8898  15.0053  15.1054  15.1938  15.2969  15.3915

          k = 0.4583 0.5292 0.0000 ( 27488 PWs)   bands (ev):

     1.3567   1.5098   1.5733   1.7260   1.7269   1.7934   1.8571   1.8949
     1.9649   1.9991   2.0883   2.1577   2.1664   2.1763   2.2775   2.3045
     2.3495   2.4502   2.4523   2.5109   2.5580   2.5812   2.5933   2.6143
     2.6541   2.7198   2.7199   2.7476   2.7782   2.7938   2.8125   2.8509
     2.8554   2.8986   2.9209   2.9295   2.9842   2.9975   3.0238   3.0593
     3.0934   3.1200   3.1379   3.2088   3.2372   3.2818   3.2842   3.3002
     3.3263   3.3366   3.4166   3.4278   3.4632   3.4789   3.5267   3.5334
     3.5801   3.6090   3.6326   3.6480   3.6791   3.7092   3.7494   3.7620
     3.7760   3.8140   3.8189   3.8736   3.8739   3.9206   3.9328   3.9342
     3.9835   3.9864   4.0057   4.0218   4.0522   4.0645   4.1049   4.1141
     4.1298   4.1571   4.1665   4.1755   4.1786   4.1942   4.2152   4.2566
     4.2612   4.2654   4.2961   4.3225   4.3595   4.3697   4.3791   4.3996
     4.4015   4.4515   4.5085   4.5383   4.5484   4.5688   4.5791   4.6450
     4.6875   4.7213   4.7490   4.8256   4.8423   4.9101   4.9108   4.9354
     4.9564   4.9732   5.0193   5.0301   5.0566   5.0698   5.1384   5.1520
     5.1818   5.2159   5.2317   5.2497   5.2650   5.2856   5.2996   5.3200
     5.3221   5.3522   5.4070   5.4169   5.4195   5.4241   5.4787   5.5475
     5.5560   5.5769   5.6007   5.6598   5.6608   5.6767   5.7095   5.7252
     5.7292   5.7479   5.7611   5.8053   5.8216   5.8671   5.8826   5.8893
     5.9170   5.9409   5.9431   5.9578   5.9828   6.0114   6.0284   6.0518
     6.0727   6.0861   6.1011   6.1224   6.1293   6.1550   6.1700   6.1786
     6.2139   6.2351   6.2391   6.2598   6.2745   6.2768   6.2830   6.2946
     6.3193   6.3460   6.3476   6.3798   6.3881   6.3965   6.4046   6.4094
     6.4635   6.4701   6.4870   6.5289   6.5940   6.6051   6.6690   6.7171
     6.7857   6.7993   6.8685   6.9981   7.1347   7.2657   7.3381   7.6222
     7.8921   8.0546   8.0796   8.4062   8.7456   8.9186   8.9785   9.2565
     9.6861   9.8790   9.9777  10.2001  10.7059  10.9389  10.9854  11.2425
    12.2162  12.3722  12.5407  12.7436  13.0804  13.3228  13.4673  13.8419
    14.1439  14.1700  14.2821  14.5519  14.6908  14.8420  14.9120  14.9329
    15.0340  15.1183  15.2612  15.3208  15.3587  15.4988

     the Fermi energy is     8.2691 ev

!    total energy              =   -3673.17834920 Ry
     estimated scf accuracy    <       0.00000044 Ry
     smearing contrib. (-TS)   =       0.04746020 Ry
     internal energy E=F+TS    =   -3673.22580940 Ry

     The total energy is F=E-TS. E is the sum of the following terms:
     one-electron contribution =  -16949.69208899 Ry
     hartree contribution      =    8849.25406652 Ry
     xc contribution           =   -1775.50379774 Ry
     ewald contribution        =    6202.71601081 Ry

     convergence has been achieved in  20 iterations

     negative rho (up, down):  9.786E-01 0.000E+00

     Forces acting on atoms (cartesian axes, Ry/au):

     atom    1 type  1   force =     0.00000000   -0.00165723    0.02667603
     atom    2 type  1   force =     0.00000000   -0.00165750    0.02667629
     atom    3 type  1   force =    -0.00000002    0.00337022   -0.01670693
     atom    4 type  1   force =     0.00000002    0.00337022   -0.01670693
     atom    5 type  1   force =     0.00000000   -0.00161080   -0.00980860
     atom    6 type  1   force =     0.00000000   -0.00161072   -0.00980871
     atom    7 type  1   force =     0.00000000    0.00056411   -0.00397073
     atom    8 type  1   force =     0.00000000    0.00056412   -0.00397078
     atom    9 type  1   force =    -0.00000001   -0.00053647    0.00446033
     atom   10 type  1   force =     0.00000001   -0.00053647    0.00446033
     atom   11 type  1   force =     0.00000000    0.00028736   -0.00086896
     atom   12 type  1   force =     0.00000000    0.00028730   -0.00086882
     atom   13 type  1   force =    -0.00000000   -0.00045039   -0.00062917
     atom   14 type  1   force =     0.00000000   -0.00045039   -0.00062917
     atom   15 type  1   force =     0.00000000    0.00019629   -0.00061610
     atom   16 type  1   force =    -0.00000001   -0.00018505    0.00035690
     atom   17 type  1   force =     0.00000001   -0.00018505    0.00035690
     atom   18 type  1   force =     0.00000000    0.00019629   -0.00061597
     atom   19 type  1   force =     0.00000000    0.00018698   -0.00036022
     atom   20 type  1   force =     0.00000000    0.00018691   -0.00036014
     atom   21 type  1   force =    -0.00000005   -0.00019561    0.00061371
     atom   22 type  1   force =     0.00000005   -0.00019561    0.00061371
     atom   23 type  1   force =     0.00000000    0.00045105    0.00063371
     atom   24 type  1   force =     0.00000000    0.00045089    0.00063368
     atom   25 type  1   force =    -0.00000005   -0.00028748    0.00087116
     atom   26 type  1   force =     0.00000005   -0.00028748    0.00087116
     atom   27 type  1   force =    -0.00000008   -0.00056275    0.00396328
     atom   28 type  1   force =     0.00000008   -0.00056275    0.00396328
     atom   29 type  1   force =     0.00000000    0.00053752   -0.00446528
     atom   30 type  1   force =     0.00000000    0.00053744   -0.00446531
     atom   31 type  1   force =     0.00000000   -0.00336838    0.01670603
     atom   32 type  1   force =     0.00000000   -0.00336860    0.01670599
     atom   33 type  1   force =     0.00000000    0.00160873    0.00980766
     atom   34 type  1   force =    -0.00000000    0.00160873    0.00980766
     atom   35 type  1   force =     0.00000016    0.00165228   -0.02666299
     atom   36 type  1   force =    -0.00000016    0.00165228   -0.02666299

     Total force =     0.067573     Total SCF correction =     0.003248
 
     init_run     :     11.64s CPU      6.27s WALL (       1 calls)
     electrons    :    610.42s CPU    314.23s WALL (       1 calls)
     forces       :      4.25s CPU      2.20s WALL (       1 calls)

     Called by init_run:
     wfcinit      :     10.85s CPU      5.59s WALL (       1 calls)
     potinit      :      0.23s CPU      0.14s WALL (       1 calls)
     hinit0       :      0.26s CPU      0.19s WALL (       1 calls)

     Called by electrons:
     c_bands      :    542.51s CPU    279.09s WALL (      21 calls)
     sum_band     :     65.01s CPU     33.49s WALL (      21 calls)
     v_of_rho     :      1.27s CPU      0.73s WALL (      21 calls)
     newd         :      1.23s CPU      0.72s WALL (      21 calls)
     mix_rho      :      0.30s CPU      0.16s WALL (      21 calls)

     Called by c_bands:
     init_us_2    :      3.91s CPU      2.01s WALL (     792 calls)
     cegterg      :    485.22s CPU    248.13s WALL (     378 calls)

     Called by *egterg:
     cdiaghg      :    123.42s CPU     63.27s WALL (    2119 calls)
     h_psi        :    242.21s CPU    124.08s WALL (    2155 calls)
     s_psi        :     22.74s CPU     11.49s WALL (    2155 calls)
     g_psi        :      0.65s CPU      0.33s WALL (    1759 calls)

     Called by h_psi:
     h_psi:calbec :     30.71s CPU     15.89s WALL (    2155 calls)
     vloc_psi     :    185.30s CPU     94.93s WALL (    2155 calls)
     add_vuspsi   :     24.15s CPU     12.20s WALL (    2155 calls)

     General routines
     calbec       :     45.61s CPU     23.58s WALL (    2605 calls)
     fft          :      0.80s CPU      0.44s WALL (     283 calls)
     ffts         :      0.06s CPU      0.03s WALL (      42 calls)
     fftw         :    215.62s CPU    109.44s WALL (  492158 calls)
     interpolate  :      0.09s CPU      0.05s WALL (      21 calls)
 
     Parallel routines
     fft_scatt_xy :     18.81s CPU     10.47s WALL (  492483 calls)
     fft_scatt_yz :     86.52s CPU     44.26s WALL (  492483 calls)
 
     PWSCF        :  10m26.65s CPU   5m23.40s WALL

 
   This run was terminated on:   5:26:10   8Sep2021            

=------------------------------------------------------------------------------=
   JOB DONE.
=------------------------------------------------------------------------------=
