
     Program PWSCF v.6.6 starts on 17Sep2021 at  7:18: 1 

     This program is part of the open-source Quantum ESPRESSO suite
     for quantum simulation of materials; please cite
         "P. Giannozzi et al., J. Phys.:Condens. Matter 21 395502 (2009);
         "P. Giannozzi et al., J. Phys.:Condens. Matter 29 465901 (2017);
          URL http://www.quantum-espresso.org", 
     in publications or presentations arising from this work. More details at
     http://www.quantum-espresso.org/quote

     Parallel version (MPI & OpenMP), running on      48 processor cores
     Number of MPI processes:                24
     Threads/MPI process:                     2

     MPI processes distributed on     1 nodes
     R & G space division:  proc/nbgrp/npool/nimage =      24
     Fft bands division:     nmany     =       1
     Reading input from ../inputs/input_ausurf_288

     Current dimensions of program PWSCF are:
     Max number of different atomic species (ntypx) = 10
     Max number of k-points (npk) =  40000
     Max angular momentum in pseudopotentials (lmaxx) =  3

     Subspace diagonalization in iterative solution of the eigenvalue problem:
     one sub-group per band group will be used
     ELPA distributed-memory algorithm (size of sub-group:  4*  4 procs)

     Found symmetry operation: I + (  0.2500  0.0000  0.0000)
     This is a supercell, fractional translations are disabled
 
     Parallelization info
     --------------------
     sticks:   dense  smooth     PW     G-vecs:    dense   smooth      PW
     Min         999     456    118               237527    73422    9804
     Max        1000     457    119               237536    73429    9815
     Sum       23985   10951   2855              5700737  1762171  235477
 

     Title: 
      Ausurf                                                                    


     bravais-lattice index     =            8
     lattice parameter (alat)  =      22.2988  a.u.
     unit-cell volume          =   51555.9485 (a.u.)^3
     number of atoms/cell      =          288
     number of atomic types    =            1
     number of electrons       =      3168.00
     number of Kohn-Sham states=         1901
     kinetic-energy cutoff     =      40.0000  Ry
     charge density cutoff     =     350.0000  Ry
     convergence threshold     =      1.0E-06
     mixing beta               =       0.7000
     number of iterations used =            8  TF        mixing
     Exchange-correlation=  SLA  PW   PBE  PBE
                           (   1   4   3   4   0   0   0)

     celldm(1)=  22.298768  celldm(2)=   1.732051  celldm(3)=   2.684575
     celldm(4)=   0.000000  celldm(5)=   0.000000  celldm(6)=   0.000000

     crystal axes: (cart. coord. in units of alat)
               a(1) = (   1.000000   0.000000   0.000000 )  
               a(2) = (   0.000000   1.732051   0.000000 )  
               a(3) = (   0.000000   0.000000   2.684575 )  

     reciprocal axes: (cart. coord. in units 2 pi/alat)
               b(1) = (  1.000000  0.000000  0.000000 )  
               b(2) = (  0.000000  0.577350  0.000000 )  
               b(3) = (  0.000000  0.000000  0.372498 )  


     PseudoPot. # 1 for Au read from file:
     /marconi/home/userexternal/czeni000/dft_src/pseudo/Au.pbe-nd-van.UPF
     MD5 check sum: deb5c07af10777505a79e28f5b4b4115
     Pseudo is Ultrasoft + core correction, Zval = 11.0
     Generated by new atomic code, or converted to UPF format
     Using radial grid of  985 points,  3 beta functions with: 
                l(1) =   1
                l(2) =   2
                l(3) =   2
     Q(r) pseudized with  8 coefficients,  rinner =    1.100   1.100   1.100
                                                       1.100   1.100

     atomic species   valence    mass     pseudopotential
        Au            11.00   196.96000     Au( 1.00)

      2 Sym. Ops. (no inversion) found



   Cartesian axes

     site n.     atom                  positions (alat units)
         1           Au  tau(   1) = (   0.0000000   0.0000000   0.0000000  )
         2           Au  tau(   2) = (   0.2500000   0.0000000   0.0000000  )
         3           Au  tau(   3) = (   0.5000000   0.0000000   0.0000000  )
         4           Au  tau(   4) = (   0.0000000   0.4330127   0.0000000  )
         5           Au  tau(   5) = (   0.7500000   0.0000000   0.0000000  )
         6           Au  tau(   6) = (   0.2500000   0.4330127   0.0000000  )
         7           Au  tau(   7) = (   0.5000000   0.4330127   0.0000000  )
         8           Au  tau(   8) = (   0.0000000   0.8660254   0.0000000  )
         9           Au  tau(   9) = (   0.7500000   0.4330127   0.0000000  )
        10           Au  tau(  10) = (   0.2500000   0.8660254   0.0000000  )
        11           Au  tau(  11) = (   0.5000000   0.8660254   0.0000000  )
        12           Au  tau(  12) = (   0.0000000   1.2990381   0.0000000  )
        13           Au  tau(  13) = (   0.7500000   0.8660254   0.0000000  )
        14           Au  tau(  14) = (   0.2500000   1.2990381   0.0000000  )
        15           Au  tau(  15) = (   0.5000000   1.2990381   0.0000000  )
        16           Au  tau(  16) = (   0.7500000   1.2990381   0.0000000  )
        17           Au  tau(  17) = (   0.1250000   0.0721688   0.2041242  )
        18           Au  tau(  18) = (   0.3750000   0.0721688   0.2041242  )
        19           Au  tau(  19) = (   0.6250000   0.0721688   0.2041242  )
        20           Au  tau(  20) = (   0.1250000   0.5051815   0.2041242  )
        21           Au  tau(  21) = (   0.6250000   0.5051815   0.2041242  )
        22           Au  tau(  22) = (   0.8750000   0.0721688   0.2041242  )
        23           Au  tau(  23) = (   0.1250000   0.9381942   0.2041242  )
        24           Au  tau(  24) = (   0.3750000   0.5051815   0.2041242  )
        25           Au  tau(  25) = (   0.3750000   0.9381942   0.2041242  )
        26           Au  tau(  26) = (   0.8750000   0.5051815   0.2041242  )
        27           Au  tau(  27) = (   0.2500000   0.2886752   0.2041242  )
        28           Au  tau(  28) = (   0.2500000   0.7216878   0.2041242  )
        29           Au  tau(  29) = (   1.0000000   0.2886752   0.2041242  )
        30           Au  tau(  30) = (   0.3750000   1.3712069   0.2041242  )
        31           Au  tau(  31) = (   0.6250000   0.9381942   0.2041242  )
        32           Au  tau(  32) = (   0.5000000   0.2886752   0.2041242  )
        33           Au  tau(  33) = (   0.7500000   0.2886752   0.2041242  )
        34           Au  tau(  34) = (   0.1250000   1.3712069   0.2041242  )
        35           Au  tau(  35) = (   0.6250000   1.3712069   0.2041242  )
        36           Au  tau(  36) = (   0.8750000   0.9381942   0.2041242  )
        37           Au  tau(  37) = (   0.8750000   1.3712069   0.2041242  )
        38           Au  tau(  38) = (   0.5000000   0.7216878   0.2041242  )
        39           Au  tau(  39) = (   0.7500000   0.7216878   0.2041242  )
        40           Au  tau(  40) = (   0.7500000   1.1547005   0.2041242  )
        41           Au  tau(  41) = (   0.2500000   1.1547005   0.2041242  )
        42           Au  tau(  42) = (   0.5000000   1.1547005   0.2041242  )
        43           Au  tau(  43) = (   1.0000000   0.7216878   0.2041242  )
        44           Au  tau(  44) = (   0.2500000   1.5877132   0.2041242  )
        45           Au  tau(  45) = (   0.5000000   1.5877132   0.2041242  )
        46           Au  tau(  46) = (   1.0000000   1.1547005   0.2041242  )
        47           Au  tau(  47) = (   0.7500000   1.5877132   0.2041242  )
        48           Au  tau(  48) = (   1.0000000   1.5877132   0.2041242  )
        49           Au  tau(  49) = (   0.2500000   0.1443375   0.4082483  )
        50           Au  tau(  50) = (   0.6250000   0.3608439   0.4082483  )
        51           Au  tau(  51) = (   0.5000000   0.1443375   0.4082483  )
        52           Au  tau(  52) = (   0.7500000   0.1443375   0.4082483  )
        53           Au  tau(  53) = (   0.1250000   0.3608439   0.4082483  )
        54           Au  tau(  54) = (   0.3750000   0.3608439   0.4082483  )
        55           Au  tau(  55) = (   0.2500000   0.5773503   0.4082483  )
        56           Au  tau(  56) = (   0.5000000   0.5773503   0.4082483  )
        57           Au  tau(  57) = (   0.5000000   1.0103630   0.4082483  )
        58           Au  tau(  58) = (   0.5000000   1.4433757   0.4082483  )
        59           Au  tau(  59) = (   0.7500000   0.5773503   0.4082483  )
        60           Au  tau(  60) = (   1.0000000   0.1443375   0.4082483  )
        61           Au  tau(  61) = (   0.1250000   0.7938566   0.4082483  )
        62           Au  tau(  62) = (   0.1250000   1.2268693   0.4082483  )
        63           Au  tau(  63) = (   0.1250000   1.6598820   0.4082483  )
        64           Au  tau(  64) = (   0.3750000   0.7938566   0.4082483  )
        65           Au  tau(  65) = (   0.3750000   1.2268693   0.4082483  )
        66           Au  tau(  66) = (   0.8750000   0.3608439   0.4082483  )
        67           Au  tau(  67) = (   0.8750000   0.7938566   0.4082483  )
        68           Au  tau(  68) = (   0.8750000   1.2268693   0.4082483  )
        69           Au  tau(  69) = (   0.8750000   1.6598820   0.4082483  )
        70           Au  tau(  70) = (   0.2500000   1.0103630   0.4082483  )
        71           Au  tau(  71) = (   0.2500000   1.4433757   0.4082483  )
        72           Au  tau(  72) = (   0.7500000   1.0103630   0.4082483  )
        73           Au  tau(  73) = (   0.7500000   1.4433757   0.4082483  )
        74           Au  tau(  74) = (   1.0000000   0.5773503   0.4082483  )
        75           Au  tau(  75) = (   1.0000000   1.0103630   0.4082483  )
        76           Au  tau(  76) = (   1.0000000   1.4433757   0.4082483  )
        77           Au  tau(  77) = (   0.3750000   1.6598820   0.4082483  )
        78           Au  tau(  78) = (   0.6250000   0.7938566   0.4082483  )
        79           Au  tau(  79) = (   0.6250000   1.2268693   0.4082483  )
        80           Au  tau(  80) = (   0.6250000   1.6598820   0.4082483  )
        81           Au  tau(  81) = (   0.6250000   0.2165064   0.6123725  )
        82           Au  tau(  82) = (   0.0000000   0.0000000   0.6123725  )
        83           Au  tau(  83) = (   0.2500000   0.0000000   0.6123725  )
        84           Au  tau(  84) = (   0.5000000   0.0000000   0.6123725  )
        85           Au  tau(  85) = (   0.1250000   0.2165064   0.6123725  )
        86           Au  tau(  86) = (   0.0000000   0.8660254   0.6123725  )
        87           Au  tau(  87) = (   0.2500000   0.4330127   0.6123725  )
        88           Au  tau(  88) = (   0.2500000   0.8660254   0.6123725  )
        89           Au  tau(  89) = (   0.5000000   0.4330127   0.6123725  )
        90           Au  tau(  90) = (   0.7500000   0.4330127   0.6123725  )
        91           Au  tau(  91) = (   0.1250000   0.6495191   0.6123725  )
        92           Au  tau(  92) = (   0.3750000   0.2165064   0.6123725  )
        93           Au  tau(  93) = (   0.3750000   0.6495191   0.6123725  )
        94           Au  tau(  94) = (   0.6250000   0.6495191   0.6123725  )
        95           Au  tau(  95) = (   0.8750000   0.2165064   0.6123725  )
        96           Au  tau(  96) = (   0.0000000   0.4330127   0.6123725  )
        97           Au  tau(  97) = (   0.2500000   1.2990381   0.6123725  )
        98           Au  tau(  98) = (   0.5000000   1.2990381   0.6123725  )
        99           Au  tau(  99) = (   0.7500000   0.0000000   0.6123725  )
       100           Au  tau( 100) = (   0.7500000   1.2990381   0.6123725  )
       101           Au  tau( 101) = (   0.1250000   1.0825318   0.6123725  )
       102           Au  tau( 102) = (   0.1250000   1.5155445   0.6123725  )
       103           Au  tau( 103) = (   0.3750000   1.0825318   0.6123725  )
       104           Au  tau( 104) = (   0.3750000   1.5155445   0.6123725  )
       105           Au  tau( 105) = (   0.6250000   1.0825318   0.6123725  )
       106           Au  tau( 106) = (   0.8750000   0.6495191   0.6123725  )
       107           Au  tau( 107) = (   0.8750000   1.0825318   0.6123725  )
       108           Au  tau( 108) = (   0.0000000   1.2990381   0.6123725  )
       109           Au  tau( 109) = (   0.5000000   0.8660254   0.6123725  )
       110           Au  tau( 110) = (   0.7500000   0.8660254   0.6123725  )
       111           Au  tau( 111) = (   0.6250000   1.5155445   0.6123725  )
       112           Au  tau( 112) = (   0.8750000   1.5155445   0.6123725  )
       113           Au  tau( 113) = (   0.1250000   0.5051815   0.8164966  )
       114           Au  tau( 114) = (   0.8750000   0.0721688   0.8164966  )
       115           Au  tau( 115) = (   0.5000000   0.2886752   0.8164966  )
       116           Au  tau( 116) = (   0.1250000   0.0721688   0.8164966  )
       117           Au  tau( 117) = (   0.3750000   0.0721688   0.8164966  )
       118           Au  tau( 118) = (   0.3750000   0.5051815   0.8164966  )
       119           Au  tau( 119) = (   0.6250000   0.0721688   0.8164966  )
       120           Au  tau( 120) = (   0.2500000   0.2886752   0.8164966  )
       121           Au  tau( 121) = (   0.2500000   0.7216878   0.8164966  )
       122           Au  tau( 122) = (   0.5000000   0.7216878   0.8164966  )
       123           Au  tau( 123) = (   0.7500000   0.2886752   0.8164966  )
       124           Au  tau( 124) = (   1.0000000   0.2886752   0.8164966  )
       125           Au  tau( 125) = (   0.1250000   0.9381942   0.8164966  )
       126           Au  tau( 126) = (   0.1250000   1.3712069   0.8164966  )
       127           Au  tau( 127) = (   0.3750000   0.9381942   0.8164966  )
       128           Au  tau( 128) = (   0.3750000   1.3712069   0.8164966  )
       129           Au  tau( 129) = (   0.6250000   0.5051815   0.8164966  )
       130           Au  tau( 130) = (   0.6250000   0.9381942   0.8164966  )
       131           Au  tau( 131) = (   0.6250000   1.3712069   0.8164966  )
       132           Au  tau( 132) = (   0.8750000   0.5051815   0.8164966  )
       133           Au  tau( 133) = (   0.8750000   0.9381942   0.8164966  )
       134           Au  tau( 134) = (   0.8750000   1.3712069   0.8164966  )
       135           Au  tau( 135) = (   0.2500000   1.1547005   0.8164966  )
       136           Au  tau( 136) = (   0.2500000   1.5877132   0.8164966  )
       137           Au  tau( 137) = (   0.5000000   1.1547005   0.8164966  )
       138           Au  tau( 138) = (   0.5000000   1.5877132   0.8164966  )
       139           Au  tau( 139) = (   0.7500000   0.7216878   0.8164966  )
       140           Au  tau( 140) = (   0.7500000   1.1547005   0.8164966  )
       141           Au  tau( 141) = (   0.7500000   1.5877132   0.8164966  )
       142           Au  tau( 142) = (   1.0000000   0.7216878   0.8164966  )
       143           Au  tau( 143) = (   1.0000000   1.1547005   0.8164966  )
       144           Au  tau( 144) = (   1.0000000   1.5877132   0.8164966  )
       145           Au  tau( 145) = (   0.2500000   0.1443375   1.0206208  )
       146           Au  tau( 146) = (   0.5000000   0.1443375   1.0206208  )
       147           Au  tau( 147) = (   0.7500000   0.1443375   1.0206208  )
       148           Au  tau( 148) = (   0.1250000   0.3608439   1.0206208  )
       149           Au  tau( 149) = (   0.3750000   0.3608439   1.0206208  )
       150           Au  tau( 150) = (   0.3750000   0.7938566   1.0206208  )
       151           Au  tau( 151) = (   0.2500000   0.5773503   1.0206208  )
       152           Au  tau( 152) = (   0.2500000   1.0103630   1.0206208  )
       153           Au  tau( 153) = (   0.2500000   1.4433757   1.0206208  )
       154           Au  tau( 154) = (   0.5000000   0.5773503   1.0206208  )
       155           Au  tau( 155) = (   0.5000000   1.0103630   1.0206208  )
       156           Au  tau( 156) = (   0.5000000   1.4433757   1.0206208  )
       157           Au  tau( 157) = (   0.7500000   0.5773503   1.0206208  )
       158           Au  tau( 158) = (   0.7500000   1.0103630   1.0206208  )
       159           Au  tau( 159) = (   0.7500000   1.4433757   1.0206208  )
       160           Au  tau( 160) = (   1.0000000   0.1443375   1.0206208  )
       161           Au  tau( 161) = (   1.0000000   0.5773503   1.0206208  )
       162           Au  tau( 162) = (   1.0000000   1.0103630   1.0206208  )
       163           Au  tau( 163) = (   1.0000000   1.4433757   1.0206208  )
       164           Au  tau( 164) = (   0.1250000   0.7938566   1.0206208  )
       165           Au  tau( 165) = (   0.1250000   1.2268693   1.0206208  )
       166           Au  tau( 166) = (   0.1250000   1.6598820   1.0206208  )
       167           Au  tau( 167) = (   0.3750000   1.2268693   1.0206208  )
       168           Au  tau( 168) = (   0.3750000   1.6598820   1.0206208  )
       169           Au  tau( 169) = (   0.6250000   0.3608439   1.0206208  )
       170           Au  tau( 170) = (   0.6250000   0.7938566   1.0206208  )
       171           Au  tau( 171) = (   0.6250000   1.2268693   1.0206208  )
       172           Au  tau( 172) = (   0.6250000   1.6598820   1.0206208  )
       173           Au  tau( 173) = (   0.8750000   0.3608439   1.0206208  )
       174           Au  tau( 174) = (   0.8750000   0.7938566   1.0206208  )
       175           Au  tau( 175) = (   0.8750000   1.2268693   1.0206208  )
       176           Au  tau( 176) = (   0.8750000   1.6598820   1.0206208  )
       177           Au  tau( 177) = (   0.0000000   0.0000000   1.2247448  )
       178           Au  tau( 178) = (   0.0000000   0.4330127   1.2247448  )
       179           Au  tau( 179) = (   0.2500000   0.0000000   1.2247448  )
       180           Au  tau( 180) = (   0.2500000   0.4330127   1.2247448  )
       181           Au  tau( 181) = (   0.5000000   0.0000000   1.2247448  )
       182           Au  tau( 182) = (   0.7500000   0.0000000   1.2247448  )
       183           Au  tau( 183) = (   0.1250000   0.2165064   1.2247448  )
       184           Au  tau( 184) = (   0.3750000   0.2165064   1.2247448  )
       185           Au  tau( 185) = (   0.6250000   0.2165064   1.2247448  )
       186           Au  tau( 186) = (   0.0000000   1.2990381   1.2247448  )
       187           Au  tau( 187) = (   0.2500000   0.8660254   1.2247448  )
       188           Au  tau( 188) = (   0.2500000   1.2990381   1.2247448  )
       189           Au  tau( 189) = (   0.5000000   0.8660254   1.2247448  )
       190           Au  tau( 190) = (   0.5000000   1.2990381   1.2247448  )
       191           Au  tau( 191) = (   0.7500000   0.8660254   1.2247448  )
       192           Au  tau( 192) = (   0.7500000   1.2990381   1.2247448  )
       193           Au  tau( 193) = (   0.1250000   0.6495191   1.2247448  )
       194           Au  tau( 194) = (   0.1250000   1.0825318   1.2247448  )
       195           Au  tau( 195) = (   0.1250000   1.5155445   1.2247448  )
       196           Au  tau( 196) = (   0.3750000   0.6495191   1.2247448  )
       197           Au  tau( 197) = (   0.3750000   1.0825318   1.2247448  )
       198           Au  tau( 198) = (   0.3750000   1.5155445   1.2247448  )
       199           Au  tau( 199) = (   0.6250000   0.6495191   1.2247448  )
       200           Au  tau( 200) = (   0.6250000   1.0825318   1.2247448  )
       201           Au  tau( 201) = (   0.6250000   1.5155445   1.2247448  )
       202           Au  tau( 202) = (   0.8750000   0.2165064   1.2247448  )
       203           Au  tau( 203) = (   0.8750000   0.6495191   1.2247448  )
       204           Au  tau( 204) = (   0.8750000   1.0825318   1.2247448  )
       205           Au  tau( 205) = (   0.8750000   1.5155445   1.2247448  )
       206           Au  tau( 206) = (   0.0000000   0.8660254   1.2247448  )
       207           Au  tau( 207) = (   0.5000000   0.4330127   1.2247448  )
       208           Au  tau( 208) = (   0.7500000   0.4330127   1.2247448  )
       209           Au  tau( 209) = (   0.1250000   0.9381942   1.4288690  )
       210           Au  tau( 210) = (   0.3750000   0.9381942   1.4288690  )
       211           Au  tau( 211) = (   0.6250000   0.9381942   1.4288690  )
       212           Au  tau( 212) = (   0.8750000   0.5051815   1.4288690  )
       213           Au  tau( 213) = (   0.2500000   1.1547005   1.4288690  )
       214           Au  tau( 214) = (   0.5000000   0.7216878   1.4288690  )
       215           Au  tau( 215) = (   0.7500000   0.7216878   1.4288690  )
       216           Au  tau( 216) = (   1.0000000   0.7216878   1.4288690  )
       217           Au  tau( 217) = (   0.1250000   0.0721688   1.4288690  )
       218           Au  tau( 218) = (   0.1250000   0.5051815   1.4288690  )
       219           Au  tau( 219) = (   0.1250000   1.3712069   1.4288690  )
       220           Au  tau( 220) = (   0.3750000   0.0721688   1.4288690  )
       221           Au  tau( 221) = (   0.3750000   0.5051815   1.4288690  )
       222           Au  tau( 222) = (   0.6250000   0.0721688   1.4288690  )
       223           Au  tau( 223) = (   0.6250000   0.5051815   1.4288690  )
       224           Au  tau( 224) = (   0.8750000   0.0721688   1.4288690  )
       225           Au  tau( 225) = (   0.8750000   0.9381942   1.4288690  )
       226           Au  tau( 226) = (   0.2500000   0.2886752   1.4288690  )
       227           Au  tau( 227) = (   0.2500000   0.7216878   1.4288690  )
       228           Au  tau( 228) = (   0.2500000   1.5877132   1.4288690  )
       229           Au  tau( 229) = (   0.5000000   0.2886752   1.4288690  )
       230           Au  tau( 230) = (   0.5000000   1.1547005   1.4288690  )
       231           Au  tau( 231) = (   0.7500000   0.2886752   1.4288690  )
       232           Au  tau( 232) = (   0.7500000   1.1547005   1.4288690  )
       233           Au  tau( 233) = (   1.0000000   0.2886752   1.4288690  )
       234           Au  tau( 234) = (   1.0000000   1.1547005   1.4288690  )
       235           Au  tau( 235) = (   0.3750000   1.3712069   1.4288690  )
       236           Au  tau( 236) = (   0.6250000   1.3712069   1.4288690  )
       237           Au  tau( 237) = (   0.8750000   1.3712069   1.4288690  )
       238           Au  tau( 238) = (   0.5000000   1.5877132   1.4288690  )
       239           Au  tau( 239) = (   0.7500000   1.5877132   1.4288690  )
       240           Au  tau( 240) = (   1.0000000   1.5877132   1.4288690  )
       241           Au  tau( 241) = (   0.2500000   1.0103630   1.6329931  )
       242           Au  tau( 242) = (   0.5000000   1.0103630   1.6329931  )
       243           Au  tau( 243) = (   0.7500000   0.5773503   1.6329931  )
       244           Au  tau( 244) = (   1.0000000   0.5773503   1.6329931  )
       245           Au  tau( 245) = (   0.1250000   1.2268693   1.6329931  )
       246           Au  tau( 246) = (   0.3750000   0.7938566   1.6329931  )
       247           Au  tau( 247) = (   0.6250000   0.7938566   1.6329931  )
       248           Au  tau( 248) = (   0.8750000   0.7938566   1.6329931  )
       249           Au  tau( 249) = (   0.2500000   0.1443375   1.6329931  )
       250           Au  tau( 250) = (   0.2500000   0.5773503   1.6329931  )
       251           Au  tau( 251) = (   0.2500000   1.4433757   1.6329931  )
       252           Au  tau( 252) = (   0.5000000   0.1443375   1.6329931  )
       253           Au  tau( 253) = (   0.5000000   0.5773503   1.6329931  )
       254           Au  tau( 254) = (   0.7500000   0.1443375   1.6329931  )
       255           Au  tau( 255) = (   0.7500000   1.0103630   1.6329931  )
       256           Au  tau( 256) = (   1.0000000   0.1443375   1.6329931  )
       257           Au  tau( 257) = (   1.0000000   1.0103630   1.6329931  )
       258           Au  tau( 258) = (   0.1250000   0.3608439   1.6329931  )
       259           Au  tau( 259) = (   0.1250000   0.7938566   1.6329931  )
       260           Au  tau( 260) = (   0.1250000   1.6598820   1.6329931  )
       261           Au  tau( 261) = (   0.3750000   0.3608439   1.6329931  )
       262           Au  tau( 262) = (   0.3750000   1.2268693   1.6329931  )
       263           Au  tau( 263) = (   0.6250000   0.3608439   1.6329931  )
       264           Au  tau( 264) = (   0.6250000   1.2268693   1.6329931  )
       265           Au  tau( 265) = (   0.8750000   0.3608439   1.6329931  )
       266           Au  tau( 266) = (   0.8750000   1.2268693   1.6329931  )
       267           Au  tau( 267) = (   0.5000000   1.4433757   1.6329931  )
       268           Au  tau( 268) = (   0.7500000   1.4433757   1.6329931  )
       269           Au  tau( 269) = (   1.0000000   1.4433757   1.6329931  )
       270           Au  tau( 270) = (   0.3750000   1.6598820   1.6329931  )
       271           Au  tau( 271) = (   0.6250000   1.6598820   1.6329931  )
       272           Au  tau( 272) = (   0.8750000   1.6598820   1.6329931  )
       273           Au  tau( 273) = (   0.1250000   1.0825318   1.8371173  )
       274           Au  tau( 274) = (   0.3750000   1.0825318   1.8371173  )
       275           Au  tau( 275) = (   0.6250000   0.6495191   1.8371173  )
       276           Au  tau( 276) = (   0.8750000   0.6495191   1.8371173  )
       277           Au  tau( 277) = (   0.1250000   0.2165064   1.8371173  )
       278           Au  tau( 278) = (   0.1250000   0.6495191   1.8371173  )
       279           Au  tau( 279) = (   0.1250000   1.5155445   1.8371173  )
       280           Au  tau( 280) = (   0.3750000   0.2165064   1.8371173  )
       281           Au  tau( 281) = (   0.3750000   0.6495191   1.8371173  )
       282           Au  tau( 282) = (   0.6250000   0.2165064   1.8371173  )
       283           Au  tau( 283) = (   0.6250000   1.0825318   1.8371173  )
       284           Au  tau( 284) = (   0.8750000   0.2165064   1.8371173  )
       285           Au  tau( 285) = (   0.8750000   1.0825318   1.8371173  )
       286           Au  tau( 286) = (   0.8750000   1.5155445   1.8371173  )
       287           Au  tau( 287) = (   0.3750000   1.5155445   1.8371173  )
       288           Au  tau( 288) = (   0.6250000   1.5155445   1.8371173  )

     number of k points=     6  Marzari-Vanderbilt smearing, width (Ry)=  0.0500
                       cart. coord. in units 2pi/alat
        k(    1) = (   0.0833333   0.0962250   0.0000000), wk =   0.4444444
        k(    2) = (   0.0833333  -0.2886751   0.0000000), wk =   0.2222222
        k(    3) = (   0.2500000   0.0962250   0.0000000), wk =   0.4444444
        k(    4) = (   0.2500000  -0.2886751   0.0000000), wk =   0.2222222
        k(    5) = (   0.4166667   0.0962250   0.0000000), wk =   0.4444444
        k(    6) = (   0.4166667  -0.2886751   0.0000000), wk =   0.2222222

     Dense  grid:  5700737 G-vectors     FFT dimensions: ( 135, 240, 360)

     Smooth grid:  1762171 G-vectors     FFT dimensions: (  90, 160, 243)

     Estimated max dynamical RAM per process >       5.89 GB

     Estimated total dynamical RAM >     141.32 GB

     Initial potential from superposition of free atoms

     starting charge 3164.65577, renormalised to 3168.00000

     negative rho (up, down):  7.682E+00 0.000E+00
     Starting wfcs are 2592 randomized atomic wfcs

     total cpu time spent up to now is      291.8 secs

     Self-consistent Calculation

     iteration #  1     ecut=    40.00 Ry     beta= 0.70
     Davidson diagonalization with overlap
     ethr =  1.00E-02,  avg # of iterations =  3.0

     Threshold (ethr) on eigenvalues was too large:
     Diagonalizing with lowered threshold

     Davidson diagonalization with overlap
     ethr =  3.34E-04,  avg # of iterations =  4.3

     negative rho (up, down):  7.304E+00 0.000E+00

     total cpu time spent up to now is     1835.1 secs

     total energy              =  -29385.07860971 Ry
     estimated scf accuracy    <      12.62398578 Ry

     iteration #  2     ecut=    40.00 Ry     beta= 0.70
     Davidson diagonalization with overlap
     ethr =  3.98E-04,  avg # of iterations =  1.5

     negative rho (up, down):  7.713E+00 0.000E+00

     total cpu time spent up to now is     2460.9 secs

     total energy              =  -29385.64923193 Ry
     estimated scf accuracy    <       5.62934572 Ry

     iteration #  3     ecut=    40.00 Ry     beta= 0.70
     Davidson diagonalization with overlap
     ethr =  1.78E-04,  avg # of iterations =  2.0

     negative rho (up, down):  8.106E+00 0.000E+00

     total cpu time spent up to now is     3137.0 secs

     total energy              =  -29385.61525118 Ry
     estimated scf accuracy    <       3.29596182 Ry

     iteration #  4     ecut=    40.00 Ry     beta= 0.70
     Davidson diagonalization with overlap
     ethr =  1.04E-04,  avg # of iterations = 10.8

     negative rho (up, down):  8.097E+00 0.000E+00

     total cpu time spent up to now is     3962.1 secs

     total energy              =  -29385.56233908 Ry
     estimated scf accuracy    <       1.61649597 Ry

     iteration #  5     ecut=    40.00 Ry     beta= 0.70
     Davidson diagonalization with overlap
     c_bands:  1 eigenvalues not converged
     ethr =  5.10E-05,  avg # of iterations = 16.8

     negative rho (up, down):  7.904E+00 0.000E+00

     total cpu time spent up to now is     4819.7 secs

     total energy              =  -29385.54028516 Ry
     estimated scf accuracy    <       0.98822591 Ry

     iteration #  6     ecut=    40.00 Ry     beta= 0.70
     Davidson diagonalization with overlap
     ethr =  3.12E-05,  avg # of iterations = 11.7

     negative rho (up, down):  7.916E+00 0.000E+00

     total cpu time spent up to now is     5600.8 secs

     total energy              =  -29385.51081682 Ry
     estimated scf accuracy    <       0.94014604 Ry

     iteration #  7     ecut=    40.00 Ry     beta= 0.70
     Davidson diagonalization with overlap
     ethr =  2.97E-05,  avg # of iterations =  6.7

     negative rho (up, down):  7.949E+00 0.000E+00

     total cpu time spent up to now is     6330.5 secs

     total energy              =  -29385.47809758 Ry
     estimated scf accuracy    <       0.95977899 Ry

     iteration #  8     ecut=    40.00 Ry     beta= 0.70
     Davidson diagonalization with overlap
     ethr =  2.97E-05,  avg # of iterations =  3.0

     negative rho (up, down):  8.095E+00 0.000E+00

     total cpu time spent up to now is     7018.6 secs

     total energy              =  -29385.40990341 Ry
     estimated scf accuracy    <       0.65136315 Ry

     iteration #  9     ecut=    40.00 Ry     beta= 0.70
     Davidson diagonalization with overlap
     ethr =  2.06E-05,  avg # of iterations = 13.7

     negative rho (up, down):  8.044E+00 0.000E+00

     total cpu time spent up to now is     8053.7 secs

     total energy              =  -29385.49062319 Ry
     estimated scf accuracy    <       0.92042990 Ry

     iteration # 10     ecut=    40.00 Ry     beta= 0.70
     Davidson diagonalization with overlap
     ethr =  2.06E-05,  avg # of iterations =  1.0

     negative rho (up, down):  8.136E+00 0.000E+00

     total cpu time spent up to now is     8635.3 secs

     total energy              =  -29385.44820504 Ry
     estimated scf accuracy    <       0.54612178 Ry

     iteration # 11     ecut=    40.00 Ry     beta= 0.70
     Davidson diagonalization with overlap
     ethr =  1.72E-05,  avg # of iterations =  1.0

     negative rho (up, down):  8.163E+00 0.000E+00

     total cpu time spent up to now is     9215.0 secs

     total energy              =  -29385.48744929 Ry
     estimated scf accuracy    <       0.27191835 Ry

     iteration # 12     ecut=    40.00 Ry     beta= 0.70
     Davidson diagonalization with overlap
     ethr =  8.58E-06,  avg # of iterations =  2.0

     negative rho (up, down):  8.293E+00 0.000E+00

     total cpu time spent up to now is     9909.0 secs

     total energy              =  -29385.41169433 Ry
     estimated scf accuracy    <       0.64306142 Ry

     iteration # 13     ecut=    40.00 Ry     beta= 0.70
     Davidson diagonalization with overlap
     ethr =  8.58E-06,  avg # of iterations = 14.8

     negative rho (up, down):  8.102E+00 0.000E+00

     total cpu time spent up to now is    10785.8 secs

     total energy              =  -29385.41191544 Ry
     estimated scf accuracy    <       0.07069394 Ry

     iteration # 14     ecut=    40.00 Ry     beta= 0.70
     Davidson diagonalization with overlap
     ethr =  2.23E-06,  avg # of iterations = 12.0

     negative rho (up, down):  8.049E+00 0.000E+00

     total cpu time spent up to now is    12194.3 secs

     total energy              =  -29385.43537408 Ry
     estimated scf accuracy    <       0.19552941 Ry

     iteration # 15     ecut=    40.00 Ry     beta= 0.70
     Davidson diagonalization with overlap
     ethr =  2.23E-06,  avg # of iterations =  2.0

     negative rho (up, down):  7.973E+00 0.000E+00

     total cpu time spent up to now is    12898.7 secs

     total energy              =  -29385.41867589 Ry
     estimated scf accuracy    <       0.10117775 Ry

     iteration # 16     ecut=    40.00 Ry     beta= 0.70
     Davidson diagonalization with overlap
     ethr =  2.23E-06,  avg # of iterations = 10.0

     negative rho (up, down):  7.893E+00 0.000E+00

     total cpu time spent up to now is    13805.7 secs

     total energy              =  -29385.42653398 Ry
     estimated scf accuracy    <       0.00195998 Ry

     iteration # 17     ecut=    40.00 Ry     beta= 0.70
     Davidson diagonalization with overlap
     ethr =  6.19E-08,  avg # of iterations = 11.0

     negative rho (up, down):  7.845E+00 0.000E+00

     total cpu time spent up to now is    14756.8 secs

     total energy              =  -29385.42621407 Ry
     estimated scf accuracy    <       0.00195473 Ry

     iteration # 18     ecut=    40.00 Ry     beta= 0.70
     Davidson diagonalization with overlap
     c_bands:  1 eigenvalues not converged
     ethr =  6.17E-08,  avg # of iterations = 14.8

     negative rho (up, down):  7.837E+00 0.000E+00

     total cpu time spent up to now is    15619.9 secs

     total energy              =  -29385.42657351 Ry
     estimated scf accuracy    <       0.00021634 Ry

     iteration # 19     ecut=    40.00 Ry     beta= 0.70
     Davidson diagonalization with overlap
     ethr =  6.83E-09,  avg # of iterations =  7.5

     negative rho (up, down):  7.835E+00 0.000E+00

     total cpu time spent up to now is    16460.4 secs

     total energy              =  -29385.42674924 Ry
     estimated scf accuracy    <       0.00004350 Ry

     iteration # 20     ecut=    40.00 Ry     beta= 0.70
     Davidson diagonalization with overlap
     ethr =  1.37E-09,  avg # of iterations =  6.8

     negative rho (up, down):  7.835E+00 0.000E+00

     total cpu time spent up to now is    17296.8 secs

     total energy              =  -29385.42678151 Ry
     estimated scf accuracy    <       0.00007084 Ry

     iteration # 21     ecut=    40.00 Ry     beta= 0.70
     Davidson diagonalization with overlap
     ethr =  1.37E-09,  avg # of iterations =  4.0

     negative rho (up, down):  7.835E+00 0.000E+00

     total cpu time spent up to now is    18095.7 secs

     total energy              =  -29385.42679086 Ry
     estimated scf accuracy    <       0.00000950 Ry

     iteration # 22     ecut=    40.00 Ry     beta= 0.70
     Davidson diagonalization with overlap
     ethr =  3.00E-10,  avg # of iterations =  2.2

     negative rho (up, down):  7.835E+00 0.000E+00

     total cpu time spent up to now is    18782.8 secs

     End of self-consistent calculation

          k = 0.0833 0.0962 0.0000 (220303 PWs)   bands (ev):

    -0.8130  -0.5140  -0.4713  -0.2263  -0.1779   0.0254   0.1020   0.2537
     0.3117   0.4900   0.5491   0.5640   0.5801   0.6014   0.6350   0.7195
     0.7832   0.8244   0.8362   0.8821   0.9223   0.9650   0.9951   1.0079
     1.0167   1.0909   1.1251   1.1388   1.2050   1.2159   1.2463   1.2568
     1.3386   1.3567   1.3853   1.4018   1.4434   1.4637   1.5057   1.5098
     1.5526   1.5573   1.5649   1.5683   1.5732   1.5834   1.5911   1.6035
     1.6142   1.6194   1.6432   1.6938   1.7091   1.7228   1.7260   1.7269
     1.7516   1.7547   1.7934   1.8039   1.8167   1.8290   1.8300   1.8327
     1.8476   1.8505   1.8521   1.8546   1.8556   1.8570   1.8641   1.8682
     1.8813   1.8949   1.9102   1.9218   1.9392   1.9454   1.9475   1.9648
     1.9730   1.9990   1.9998   2.0095   2.0104   2.0133   2.0284   2.0302
     2.0336   2.0406   2.0427   2.0560   2.0658   2.0742   2.0844   2.0882
     2.1220   2.1227   2.1254   2.1272   2.1291   2.1441   2.1466   2.1516
     2.1520   2.1577   2.1616   2.1635   2.1664   2.1688   2.1714   2.1763
     2.1962   2.2125   2.2257   2.2292   2.2302   2.2340   2.2342   2.2382
     2.2417   2.2441   2.2477   2.2734   2.2775   2.2806   2.2886   2.2906
     2.3019   2.3027   2.3045   2.3080   2.3086   2.3100   2.3147   2.3180
     2.3229   2.3253   2.3294   2.3337   2.3382   2.3404   2.3438   2.3449
     2.3494   2.3502   2.3580   2.3701   2.3764   2.3807   2.3810   2.3824
     2.3833   2.3915   2.3991   2.4063   2.4080   2.4115   2.4118   2.4122
     2.4166   2.4230   2.4262   2.4265   2.4282   2.4301   2.4365   2.4395
     2.4407   2.4494   2.4501   2.4515   2.4522   2.4562   2.4603   2.4685
     2.4743   2.4759   2.4766   2.4837   2.4838   2.4857   2.4887   2.4953
     2.5108   2.5135   2.5151   2.5245   2.5357   2.5375   2.5379   2.5430
     2.5462   2.5534   2.5556   2.5579   2.5647   2.5681   2.5687   2.5741
     2.5757   2.5800   2.5801   2.5812   2.5880   2.5905   2.5932   2.5944
     2.5981   2.5985   2.5986   2.6022   2.6140   2.6143   2.6169   2.6207
     2.6234   2.6351   2.6415   2.6540   2.6549   2.6591   2.6613   2.6637
     2.6672   2.6688   2.6700   2.6731   2.6805   2.6846   2.6932   2.6942
     2.6980   2.7013   2.7149   2.7166   2.7197   2.7199   2.7237   2.7267
     2.7340   2.7429   2.7450   2.7476   2.7590   2.7601   2.7689   2.7717
     2.7725   2.7757   2.7781   2.7809   2.7855   2.7906   2.7938   2.8061
     2.8065   2.8068   2.8071   2.8124   2.8125   2.8147   2.8193   2.8247
     2.8344   2.8371   2.8490   2.8508   2.8554   2.8555   2.8573   2.8595
     2.8600   2.8609   2.8754   2.8758   2.8986   2.9117   2.9196   2.9208
     2.9229   2.9294   2.9326   2.9373   2.9403   2.9479   2.9503   2.9564
     2.9567   2.9612   2.9794   2.9841   2.9975   3.0086   3.0112   3.0219
     3.0237   3.0439   3.0561   3.0565   3.0593   3.0675   3.0691   3.0694
     3.0726   3.0804   3.0814   3.0827   3.0834   3.0851   3.0933   3.1109
     3.1160   3.1171   3.1200   3.1221   3.1307   3.1331   3.1379   3.1400
     3.1428   3.1430   3.1479   3.1630   3.1674   3.1695   3.1761   3.1802
     3.1811   3.1909   3.1946   3.1965   3.1988   3.1992   3.2021   3.2088
     3.2089   3.2123   3.2139   3.2232   3.2249   3.2282   3.2318   3.2336
     3.2372   3.2453   3.2615   3.2629   3.2673   3.2743   3.2793   3.2817
     3.2842   3.2910   3.2926   3.2934   3.3002   3.3127   3.3166   3.3218
     3.3245   3.3245   3.3252   3.3263   3.3277   3.3291   3.3319   3.3333
     3.3366   3.3440   3.3475   3.3506   3.3539   3.3552   3.3606   3.3607
     3.3695   3.3732   3.3732   3.3758   3.3758   3.3778   3.3791   3.3817
     3.4049   3.4061   3.4067   3.4096   3.4138   3.4166   3.4213   3.4219
     3.4277   3.4347   3.4388   3.4389   3.4423   3.4478   3.4484   3.4495
     3.4593   3.4631   3.4633   3.4643   3.4732   3.4748   3.4757   3.4759
     3.4789   3.4824   3.4860   3.4871   3.4962   3.4974   3.5022   3.5062
     3.5090   3.5120   3.5150   3.5151   3.5186   3.5267   3.5319   3.5333
     3.5359   3.5382   3.5389   3.5436   3.5480   3.5537   3.5579   3.5628
     3.5670   3.5689   3.5709   3.5762   3.5764   3.5801   3.5856   3.5868
     3.5908   3.5920   3.5935   3.5971   3.5982   3.6016   3.6018   3.6018
     3.6075   3.6089   3.6210   3.6211   3.6244   3.6246   3.6252   3.6259
     3.6263   3.6297   3.6325   3.6447   3.6468   3.6480   3.6481   3.6594
     3.6620   3.6791   3.6846   3.6907   3.6923   3.6933   3.6961   3.6978
     3.7044   3.7092   3.7116   3.7151   3.7189   3.7201   3.7209   3.7304
     3.7320   3.7326   3.7343   3.7349   3.7437   3.7458   3.7494   3.7503
     3.7592   3.7594   3.7619   3.7656   3.7714   3.7732   3.7743   3.7760
     3.7769   3.7789   3.7852   3.7863   3.7877   3.7904   3.7920   3.7940
     3.8014   3.8050   3.8107   3.8139   3.8189   3.8252   3.8266   3.8281
     3.8358   3.8434   3.8467   3.8493   3.8525   3.8555   3.8556   3.8571
     3.8649   3.8677   3.8682   3.8697   3.8697   3.8735   3.8738   3.8750
     3.8766   3.8935   3.8952   3.9003   3.9020   3.9043   3.9072   3.9165
     3.9193   3.9196   3.9206   3.9225   3.9234   3.9245   3.9260   3.9307
     3.9327   3.9342   3.9345   3.9388   3.9409   3.9487   3.9495   3.9529
     3.9549   3.9552   3.9610   3.9635   3.9647   3.9676   3.9710   3.9757
     3.9784   3.9799   3.9802   3.9835   3.9864   3.9877   3.9917   3.9923
     3.9940   4.0057   4.0057   4.0118   4.0125   4.0154   4.0163   4.0193
     4.0217   4.0262   4.0265   4.0283   4.0391   4.0392   4.0418   4.0425
     4.0521   4.0534   4.0579   4.0645   4.0682   4.0685   4.0696   4.0709
     4.0731   4.0733   4.0764   4.0789   4.0801   4.0857   4.0868   4.0913
     4.0953   4.0969   4.0979   4.0986   4.0992   4.1022   4.1049   4.1079
     4.1097   4.1101   4.1141   4.1141   4.1177   4.1197   4.1202   4.1296
     4.1298   4.1318   4.1337   4.1351   4.1394   4.1399   4.1411   4.1422
     4.1424   4.1499   4.1548   4.1569   4.1587   4.1624   4.1624   4.1639
     4.1645   4.1649   4.1654   4.1657   4.1664   4.1674   4.1694   4.1711
     4.1743   4.1754   4.1754   4.1783   4.1786   4.1811   4.1831   4.1831
     4.1870   4.1889   4.1906   4.1906   4.1935   4.1941   4.1971   4.1987
     4.1994   4.1998   4.2003   4.2008   4.2021   4.2039   4.2051   4.2058
     4.2067   4.2101   4.2141   4.2151   4.2182   4.2185   4.2187   4.2272
     4.2308   4.2316   4.2318   4.2357   4.2368   4.2373   4.2377   4.2388
     4.2442   4.2502   4.2543   4.2549   4.2559   4.2566   4.2579   4.2611
     4.2654   4.2678   4.2700   4.2739   4.2745   4.2779   4.2784   4.2826
     4.2886   4.2941   4.2961   4.2967   4.3003   4.3005   4.3058   4.3061
     4.3145   4.3147   4.3153   4.3184   4.3218   4.3224   4.3224   4.3280
     4.3329   4.3384   4.3394   4.3446   4.3480   4.3505   4.3536   4.3560
     4.3567   4.3578   4.3594   4.3625   4.3673   4.3688   4.3691   4.3696
     4.3704   4.3709   4.3719   4.3790   4.3807   4.3816   4.3828   4.3838
     4.3894   4.3928   4.3937   4.3944   4.3996   4.3996   4.4013   4.4065
     4.4254   4.4266   4.4266   4.4295   4.4297   4.4314   4.4334   4.4344
     4.4421   4.4513   4.4514   4.4525   4.4625   4.4630   4.4660   4.4667
     4.4686   4.4712   4.4781   4.4842   4.4854   4.4906   4.4911   4.4916
     4.4934   4.4955   4.4991   4.5050   4.5084   4.5097   4.5127   4.5188
     4.5197   4.5224   4.5250   4.5282   4.5335   4.5342   4.5355   4.5360
     4.5362   4.5382   4.5407   4.5483   4.5500   4.5559   4.5661   4.5687
     4.5744   4.5770   4.5787   4.5790   4.5864   4.5909   4.5973   4.6061
     4.6078   4.6218   4.6325   4.6326   4.6362   4.6396   4.6449   4.6475
     4.6521   4.6592   4.6620   4.6631   4.6668   4.6804   4.6844   4.6859
     4.6873   4.6917   4.6918   4.6926   4.6975   4.6991   4.6991   4.7037
     4.7085   4.7144   4.7183   4.7189   4.7211   4.7252   4.7256   4.7307
     4.7374   4.7446   4.7456   4.7467   4.7489   4.7514   4.7607   4.7645
     4.7649   4.7727   4.7789   4.7853   4.7974   4.8014   4.8058   4.8103
     4.8113   4.8137   4.8150   4.8177   4.8235   4.8241   4.8255   4.8261
     4.8275   4.8281   4.8288   4.8300   4.8404   4.8422   4.8496   4.8508
     4.8585   4.8595   4.8717   4.8720   4.8722   4.8738   4.8786   4.8799
     4.8810   4.8820   4.8859   4.8883   4.8919   4.8945   4.8962   4.8990
     4.9011   4.9029   4.9066   4.9094   4.9100   4.9107   4.9185   4.9252
     4.9274   4.9299   4.9353   4.9413   4.9463   4.9534   4.9564   4.9585
     4.9597   4.9620   4.9647   4.9712   4.9723   4.9730   4.9751   4.9810
     4.9812   4.9819   4.9836   4.9913   4.9914   4.9930   4.9988   4.9990
     5.0021   5.0065   5.0117   5.0146   5.0166   5.0192   5.0228   5.0248
     5.0293   5.0299   5.0307   5.0341   5.0342   5.0353   5.0373   5.0376
     5.0424   5.0465   5.0565   5.0586   5.0605   5.0606   5.0632   5.0696
     5.0733   5.0783   5.0821   5.0845   5.0865   5.0882   5.0948   5.1087
     5.1094   5.1115   5.1212   5.1224   5.1243   5.1281   5.1293   5.1335
     5.1352   5.1353   5.1384   5.1418   5.1487   5.1513   5.1514   5.1519
     5.1540   5.1553   5.1604   5.1611   5.1618   5.1732   5.1803   5.1817
     5.1854   5.1901   5.1907   5.1908   5.1930   5.1999   5.2012   5.2013
     5.2043   5.2071   5.2159   5.2160   5.2221   5.2235   5.2245   5.2250
     5.2285   5.2293   5.2311   5.2316   5.2316   5.2320   5.2362   5.2382
     5.2386   5.2390   5.2392   5.2410   5.2425   5.2462   5.2496   5.2504
     5.2585   5.2591   5.2606   5.2614   5.2622   5.2645   5.2650   5.2662
     5.2688   5.2703   5.2741   5.2754   5.2768   5.2829   5.2834   5.2854
     5.2858   5.2873   5.2887   5.2962   5.2972   5.2994   5.3120   5.3163
     5.3189   5.3199   5.3220   5.3266   5.3270   5.3273   5.3312   5.3322
     5.3343   5.3371   5.3403   5.3444   5.3446   5.3473   5.3511   5.3521
     5.3538   5.3544   5.3557   5.3643   5.3672   5.3731   5.3752   5.3761
     5.3762   5.3767   5.3790   5.3811   5.3877   5.3898   5.3951   5.3952
     5.3989   5.4029   5.4034   5.4065   5.4065   5.4092   5.4131   5.4140
     5.4167   5.4191   5.4199   5.4241   5.4280   5.4315   5.4318   5.4342
     5.4461   5.4508   5.4526   5.4535   5.4563   5.4577   5.4593   5.4608
     5.4729   5.4743   5.4745   5.4785   5.4792   5.4868   5.4887   5.4895
     5.4950   5.4961   5.5088   5.5109   5.5163   5.5165   5.5185   5.5322
     5.5334   5.5351   5.5360   5.5372   5.5400   5.5425   5.5429   5.5455
     5.5470   5.5472   5.5510   5.5549   5.5555   5.5558   5.5643   5.5679
     5.5725   5.5767   5.5768   5.5772   5.5777   5.5822   5.5938   5.5991
     5.6004   5.6046   5.6062   5.6076   5.6110   5.6202   5.6219   5.6226
     5.6275   5.6321   5.6406   5.6413   5.6453   5.6454   5.6472   5.6479
     5.6571   5.6584   5.6594   5.6606   5.6680   5.6746   5.6751   5.6763
     5.6786   5.6787   5.6858   5.6967   5.6971   5.6972   5.6999   5.6999
     5.7079   5.7093   5.7106   5.7123   5.7249   5.7289   5.7299   5.7302
     5.7308   5.7311   5.7334   5.7430   5.7474   5.7481   5.7484   5.7494
     5.7566   5.7609   5.7622   5.7628   5.7668   5.7693   5.7698   5.7723
     5.7766   5.7779   5.7907   5.7981   5.8002   5.8051   5.8071   5.8079
     5.8105   5.8116   5.8214   5.8243   5.8288   5.8306   5.8329   5.8341
     5.8373   5.8439   5.8486   5.8538   5.8542   5.8548   5.8570   5.8574
     5.8582   5.8600   5.8600   5.8652   5.8654   5.8669   5.8764   5.8825
     5.8891   5.8929   5.8964   5.8974   5.9005   5.9022   5.9034   5.9060
     5.9107   5.9108   5.9167   5.9254   5.9397   5.9407   5.9428   5.9466
     5.9471   5.9490   5.9494   5.9575   5.9581   5.9588   5.9593   5.9599
     5.9634   5.9687   5.9688   5.9770   5.9775   5.9780   5.9808   5.9826
     5.9908   5.9954   5.9956   5.9964   5.9989   6.0095   6.0112   6.0131
     6.0131   6.0141   6.0278   6.0283   6.0360   6.0440   6.0477   6.0516
     6.0529   6.0530   6.0537   6.0564   6.0573   6.0660   6.0669   6.0706
     6.0718   6.0726   6.0731   6.0734   6.0735   6.0742   6.0766   6.0773
     6.0859   6.0890   6.0907   6.0911   6.0947   6.0973   6.0977   6.1009
     6.1010   6.1074   6.1078   6.1084   6.1086   6.1171   6.1181   6.1223
     6.1231   6.1245   6.1293   6.1301   6.1338   6.1394   6.1403   6.1427
     6.1429   6.1450   6.1504   6.1520   6.1530   6.1547   6.1576   6.1623
     6.1654   6.1658   6.1677   6.1685   6.1698   6.1752   6.1763   6.1783
     6.1795   6.1819   6.1841   6.1860   6.1928   6.1960   6.1961   6.1997
     6.2013   6.2057   6.2068   6.2093   6.2138   6.2138   6.2143   6.2189
     6.2199   6.2209   6.2212   6.2258   6.2260   6.2314   6.2333   6.2339
     6.2346   6.2349   6.2354   6.2390   6.2468   6.2485   6.2529   6.2578
     6.2597   6.2598   6.2636   6.2648   6.2657   6.2670   6.2673   6.2730
     6.2743   6.2767   6.2790   6.2826   6.2827   6.2838   6.2913   6.2931
     6.2938   6.2945   6.2976   6.3036   6.3071   6.3138   6.3172   6.3192
     6.3228   6.3278   6.3286   6.3309   6.3338   6.3361   6.3363   6.3374
     6.3453   6.3459   6.3459   6.3460   6.3474   6.3476   6.3497   6.3588
     6.3608   6.3621   6.3648   6.3650   6.3701   6.3716   6.3744   6.3752
     6.3761   6.3763   6.3773   6.3777   6.3778   6.3787   6.3796   6.3833
     6.3850   6.3865   6.3880   6.3904   6.3922   6.3925   6.3942   6.3957
     6.3962   6.3980   6.3989   6.4044   6.4056   6.4091   6.4092   6.4164
     6.4186   6.4243   6.4251   6.4286   6.4317   6.4324   6.4346   6.4346
     6.4385   6.4424   6.4454   6.4484   6.4497   6.4516   6.4527   6.4562
     6.4633   6.4651   6.4677   6.4700   6.4742   6.4780   6.4780   6.4784
     6.4864   6.4868   6.5016   6.5117   6.5126   6.5161   6.5174   6.5194
     6.5289   6.5345   6.5364   6.5459   6.5465   6.5467   6.5473   6.5481
     6.5484   6.5485   6.5508   6.5608   6.5645   6.5651   6.5713   6.5753
     6.5809   6.5846   6.5850   6.5858   6.5875   6.5881   6.5899   6.5919
     6.5923   6.5939   6.5959   6.5991   6.5992   6.5997   6.6011   6.6021
     6.6043   6.6049   6.6059   6.6085   6.6334   6.6347   6.6371   6.6373
     6.6383   6.6526   6.6627   6.6689   6.6704   6.6818   6.6917   6.6968
     6.6971   6.6975   6.7171   6.7171   6.7193   6.7250   6.7250   6.7285
     6.7398   6.7464   6.7567   6.7607   6.7855   6.7993   6.8158   6.8258
     6.8275   6.8339   6.8531   6.8683   6.8763   6.8953   6.8965   6.8974
     6.9057   6.9064   6.9117   6.9126   6.9130   6.9340   6.9558   6.9979
     7.0626   7.0630   7.0667   7.0798   7.1345   7.1469   7.2576   7.2656
     7.3380   7.3797   7.4071   7.4967   7.5254   7.5266   7.5292   7.5832
     7.6142   7.6220   7.6392   7.6697   7.6861   7.6911   7.7172   7.7395
     7.7969   7.7988   7.8002   7.8061   7.8154   7.8493   7.8509   7.8521
     7.8662   7.8703   7.8920   8.0011   8.0289   8.0375   8.0476   8.0545
     8.0608   8.0663   8.0795   8.1132   8.1462   8.1925   8.1973   8.2136
     8.2409   8.2648   8.2769   8.2979   8.3293   8.3494   8.3595   8.3614
     8.4061   8.4064   8.4153   8.4200   8.4214   8.4239   8.4534   8.4653
     8.5150   8.5163   8.5507   8.5855   8.5960   8.6486   8.6487   8.6701
     8.6836   8.7137   8.7454   8.7752   8.7832   8.7882   8.7920   8.8060
     8.8539   8.9185   8.9272   8.9281   8.9468   8.9507   8.9665   8.9784
     9.0091   9.0220   9.0403   9.0559   9.0637   9.1042   9.1285   9.1464
     9.1964   9.2262   9.2312   9.2504   9.2564   9.2727   9.2777   9.2891
     9.2968   9.2985   9.3120   9.3146   9.3530   9.3897   9.4610   9.4963
     9.5702   9.5762   9.5884   9.6441   9.6611   9.6860   9.6973   9.7013
     9.7175   9.7303   9.7558   9.7599   9.7804   9.7877   9.8240   9.8306
     9.8605   9.8688   9.8717   9.8789   9.9042   9.9109   9.9361   9.9776
     9.9943   9.9979  10.0040  10.0743  10.0744  10.0901  10.2000  10.2070
    10.2244  10.2500  10.2529  10.2644  10.2982  10.3143  10.3642  10.3937
    10.4598  10.4661  10.5294  10.5446  10.5521  10.5645  10.5919  10.6435
    10.6511  10.6742  10.6809  10.7058  10.7283  10.7564  10.7872  10.7896
    10.8569  10.8657  10.8917  10.9349  10.9388  10.9821  10.9854  11.0331
    11.0497  11.0638  11.0766  11.0861  11.1309  11.1349  11.1449  11.1945
    11.2182  11.2268  11.2293  11.2359  11.2425  11.2591  11.2644  11.2741
    11.2823  11.2965  11.3281  11.3376  11.3419  11.3824  11.3897  11.4437
    11.4510  11.4668  11.4824  11.5487  11.5721  11.6063  11.6597  11.6621
    11.6655  11.7217  11.7283  11.7565  11.7791  11.8062  11.8213  11.8309
    11.8565  11.8825  11.8985  11.9043  11.9312  11.9530  11.9858  12.0007
    12.0116  12.0479  12.0589  12.0633  12.0968  12.1033  12.1127  12.1262
    12.2162  12.2255  12.2556  12.2786  12.3036  12.3151  12.3200  12.3381
    12.3471  12.3561  12.3721  12.3801  12.4095  12.4489  12.4558  12.5246
    12.5406  12.5511  12.5924  12.6018  12.6092  12.6161  12.6198  12.6220
    12.6451  12.6534  12.7047  12.7299  12.7414  12.7435  12.7651  12.7790
    12.7901  12.8215  12.8467  12.8497  12.8734  12.8748  12.8884  12.8935
    12.9050  12.9364  13.0226  13.0226  13.0522  13.0723  13.0811  13.0937
    13.0962  13.1006  13.1579  13.1679  13.1796  13.2046  13.2152  13.2278
    13.2445  13.2494  13.2598  13.2840  13.2843  13.2952  13.3196  13.3234
    13.3387  13.3791  13.3836  13.4405  13.4464  13.4623  13.4632  13.4640
    13.4680  13.4686  13.4718  13.4916  13.5042  13.5235  13.5275  13.5778
    13.6556  13.6623  13.6762  13.6823  13.6884  13.7254  13.7601  13.7660
    13.8099  13.8183  13.8226  13.8264  13.8358  13.8433  13.8830  13.8852
    13.8900  13.8961  13.9144  13.9334  13.9337  13.9392  13.9526  13.9578
    13.9605  13.9951  13.9964  14.0020  14.0079  14.0280  14.0492  14.0698
    14.0905  14.1012  14.1118  14.1280  14.1448  14.1633  14.1706  14.1717
    14.2009  14.2039  14.2311  14.2434  14.2712  14.2789  14.2823  14.3238
    14.3393  14.3712  14.3738  14.4019  14.4036  14.4103  14.4231  14.4232
    14.4282  14.5057  14.5483  14.5555  14.5575

          k = 0.0833-0.2887 0.0000 (220268 PWs)   bands (ev):

    -0.7122  -0.7122  -0.3721  -0.3721   0.1226   0.1226   0.1366   0.1366
     0.3332   0.3332   0.4500   0.4500   0.6378   0.6378   0.6973   0.6973
     0.6987   0.6987   0.9045   0.9045   0.9787   0.9787   1.0131   1.0131
     1.0803   1.0803   1.2201   1.2201   1.2410   1.2410   1.2639   1.2639
     1.3072   1.3072   1.3799   1.3799   1.4288   1.4288   1.4719   1.4719
     1.5338   1.5338   1.5449   1.5449   1.6001   1.6001   1.6052   1.6052
     1.6099   1.6099   1.6497   1.6497   1.6505   1.6505   1.6609   1.6609
     1.6965   1.6965   1.7607   1.7607   1.7918   1.7918   1.8464   1.8464
     1.8612   1.8612   1.8864   1.8864   1.8971   1.8971   1.9034   1.9034
     1.9191   1.9191   1.9250   1.9250   1.9443   1.9443   1.9944   1.9944
     2.0364   2.0364   2.0411   2.0411   2.0572   2.0572   2.0650   2.0650
     2.0786   2.0786   2.0841   2.0841   2.0852   2.0852   2.0992   2.0992
     2.1138   2.1138   2.1519   2.1519   2.1678   2.1678   2.1708   2.1708
     2.1737   2.1737   2.1753   2.1753   2.1758   2.1758   2.1996   2.1996
     2.2056   2.2056   2.2132   2.2132   2.2504   2.2504   2.2536   2.2536
     2.2538   2.2538   2.2572   2.2572   2.2714   2.2714   2.2721   2.2721
     2.2769   2.2769   2.2862   2.2862   2.2876   2.2876   2.2884   2.2884
     2.2973   2.2973   2.3060   2.3060   2.3122   2.3122   2.3236   2.3236
     2.3271   2.3271   2.3384   2.3384   2.3590   2.3590   2.3593   2.3593
     2.3611   2.3611   2.3624   2.3624   2.3682   2.3682   2.4026   2.4027
     2.4144   2.4144   2.4228   2.4228   2.4252   2.4252   2.4335   2.4335
     2.4503   2.4503   2.4613   2.4613   2.4685   2.4685   2.4713   2.4713
     2.4806   2.4806   2.4860   2.4860   2.4946   2.4946   2.4996   2.4996
     2.4996   2.4996   2.5020   2.5020   2.5087   2.5087   2.5180   2.5180
     2.5195   2.5195   2.5439   2.5439   2.5454   2.5454   2.5547   2.5547
     2.5682   2.5682   2.5732   2.5732   2.5878   2.5878   2.5948   2.5948
     2.5973   2.5973   2.6219   2.6219   2.6429   2.6429   2.6488   2.6488
     2.6593   2.6593   2.6746   2.6746   2.6771   2.6771   2.6810   2.6810
     2.6925   2.6925   2.6944   2.6944   2.6953   2.6953   2.7018   2.7018
     2.7021   2.7021   2.7049   2.7049   2.7113   2.7113   2.7226   2.7226
     2.7231   2.7231   2.7432   2.7432   2.7598   2.7598   2.7747   2.7747
     2.7761   2.7761   2.7801   2.7801   2.7972   2.7972   2.8035   2.8035
     2.8073   2.8073   2.8114   2.8114   2.8195   2.8195   2.8325   2.8325
     2.8377   2.8377   2.8537   2.8537   2.8595   2.8595   2.8696   2.8696
     2.8704   2.8704   2.8873   2.8873   2.8924   2.8924   2.9246   2.9246
     2.9299   2.9299   2.9322   2.9322   2.9382   2.9382   2.9462   2.9462
     2.9789   2.9789   2.9960   2.9960   3.0051   3.0051   3.0104   3.0104
     3.0142   3.0142   3.0356   3.0356   3.0410   3.0410   3.0691   3.0691
     3.0795   3.0795   3.0822   3.0822   3.0826   3.0826   3.0843   3.0843
     3.0888   3.0888   3.1043   3.1043   3.1257   3.1257   3.1303   3.1303
     3.1368   3.1368   3.1415   3.1415   3.1603   3.1603   3.1626   3.1626
     3.1782   3.1782   3.1824   3.1824   3.2005   3.2005   3.2245   3.2245
     3.2319   3.2319   3.2376   3.2376   3.2393   3.2393   3.2421   3.2421
     3.2487   3.2487   3.2675   3.2675   3.2682   3.2682   3.2740   3.2740
     3.2740   3.2740   3.2745   3.2745   3.2915   3.2915   3.3071   3.3071
     3.3115   3.3115   3.3143   3.3143   3.3281   3.3281   3.3343   3.3343
     3.3391   3.3391   3.3401   3.3401   3.3499   3.3499   3.3540   3.3540
     3.3602   3.3602   3.3673   3.3673   3.3743   3.3743   3.3839   3.3839
     3.3845   3.3845   3.4096   3.4096   3.4119   3.4119   3.4217   3.4217
     3.4237   3.4237   3.4347   3.4347   3.4395   3.4395   3.4519   3.4519
     3.4607   3.4607   3.4616   3.4616   3.4699   3.4699   3.4763   3.4763
     3.4792   3.4792   3.4836   3.4836   3.4959   3.4959   3.5018   3.5018
     3.5087   3.5087   3.5155   3.5155   3.5241   3.5241   3.5315   3.5315
     3.5335   3.5335   3.5473   3.5473   3.5494   3.5494   3.5511   3.5511
     3.5556   3.5556   3.5560   3.5560   3.5684   3.5684   3.5842   3.5842
     3.5877   3.5877   3.5886   3.5886   3.6151   3.6151   3.6159   3.6159
     3.6199   3.6199   3.6220   3.6220   3.6229   3.6229   3.6272   3.6272
     3.6412   3.6412   3.6486   3.6486   3.6610   3.6610   3.6749   3.6749
     3.6779   3.6779   3.6853   3.6853   3.6858   3.6858   3.6914   3.6914
     3.6997   3.6997   3.7020   3.7020   3.7078   3.7078   3.7081   3.7081
     3.7385   3.7385   3.7495   3.7495   3.7511   3.7511   3.7626   3.7626
     3.7649   3.7649   3.7669   3.7669   3.7707   3.7707   3.7707   3.7707
     3.7794   3.7794   3.7863   3.7863   3.7915   3.7915   3.8157   3.8157
     3.8159   3.8159   3.8361   3.8361   3.8387   3.8387   3.8464   3.8464
     3.8506   3.8506   3.8535   3.8535   3.8623   3.8623   3.8647   3.8647
     3.8700   3.8700   3.8763   3.8763   3.8922   3.8922   3.8973   3.8973
     3.9037   3.9037   3.9095   3.9095   3.9112   3.9112   3.9126   3.9126
     3.9149   3.9149   3.9278   3.9278   3.9386   3.9386   3.9442   3.9442
     3.9443   3.9443   3.9450   3.9450   3.9452   3.9452   3.9480   3.9480
     3.9551   3.9551   3.9590   3.9590   3.9654   3.9654   3.9763   3.9763
     3.9776   3.9776   3.9821   3.9821   3.9937   3.9937   3.9947   3.9947
     3.9987   3.9987   4.0006   4.0006   4.0081   4.0081   4.0219   4.0219
     4.0219   4.0219   4.0247   4.0247   4.0252   4.0252   4.0265   4.0265
     4.0547   4.0547   4.0561   4.0561   4.0629   4.0629   4.0669   4.0669
     4.0722   4.0722   4.0727   4.0727   4.0735   4.0735   4.0745   4.0745
     4.0819   4.0819   4.0849   4.0849   4.1083   4.1083   4.1113   4.1113
     4.1157   4.1157   4.1157   4.1157   4.1222   4.1222   4.1351   4.1351
     4.1396   4.1396   4.1400   4.1400   4.1454   4.1454   4.1462   4.1462
     4.1462   4.1462   4.1478   4.1478   4.1517   4.1517   4.1608   4.1608
     4.1687   4.1687   4.1738   4.1738   4.1761   4.1761   4.1778   4.1778
     4.1812   4.1812   4.1853   4.1853   4.1873   4.1873   4.1913   4.1913
     4.1945   4.1945   4.1973   4.1973   4.1980   4.1980   4.2031   4.2031
     4.2063   4.2063   4.2130   4.2130   4.2164   4.2164   4.2187   4.2187
     4.2219   4.2219   4.2228   4.2228   4.2237   4.2237   4.2261   4.2261
     4.2261   4.2261   4.2289   4.2289   4.2318   4.2318   4.2326   4.2326
     4.2457   4.2457   4.2463   4.2463   4.2669   4.2669   4.2686   4.2686
     4.2716   4.2716   4.2763   4.2763   4.2776   4.2776   4.2826   4.2826
     4.2880   4.2880   4.2984   4.2984   4.2986   4.2986   4.3033   4.3033
     4.3078   4.3078   4.3105   4.3105   4.3178   4.3178   4.3229   4.3229
     4.3271   4.3271   4.3304   4.3304   4.3445   4.3445   4.3490   4.3490
     4.3507   4.3507   4.3604   4.3604   4.3688   4.3688   4.3700   4.3700
     4.3783   4.3783   4.3804   4.3804   4.3804   4.3805   4.3887   4.3887
     4.3986   4.3986   4.4044   4.4044   4.4189   4.4189   4.4232   4.4232
     4.4238   4.4238   4.4320   4.4320   4.4332   4.4332   4.4538   4.4538
     4.4576   4.4576   4.4610   4.4610   4.4623   4.4623   4.4642   4.4642
     4.4659   4.4659   4.4719   4.4719   4.4881   4.4881   4.4932   4.4932
     4.4934   4.4934   4.4945   4.4945   4.5052   4.5052   4.5212   4.5212
     4.5234   4.5234   4.5335   4.5335   4.5395   4.5395   4.5488   4.5488
     4.5569   4.5569   4.5756   4.5756   4.5777   4.5777   4.5802   4.5802
     4.5838   4.5838   4.5905   4.5905   4.5985   4.5985   4.5985   4.5985
     4.6014   4.6014   4.6126   4.6126   4.6136   4.6136   4.6308   4.6308
     4.6408   4.6408   4.6535   4.6535   4.6545   4.6545   4.6600   4.6600
     4.6646   4.6646   4.6704   4.6704   4.6770   4.6770   4.6839   4.6839
     4.6892   4.6892   4.6984   4.6984   4.7062   4.7062   4.7063   4.7063
     4.7097   4.7097   4.7169   4.7169   4.7194   4.7194   4.7418   4.7418
     4.7477   4.7477   4.7589   4.7589   4.7697   4.7697   4.7757   4.7757
     4.7950   4.7950   4.8046   4.8046   4.8209   4.8209   4.8263   4.8263
     4.8297   4.8297   4.8332   4.8332   4.8451   4.8451   4.8508   4.8508
     4.8595   4.8595   4.8597   4.8597   4.8663   4.8663   4.8664   4.8664
     4.8749   4.8749   4.8757   4.8757   4.8959   4.8959   4.8994   4.8994
     4.9086   4.9086   4.9185   4.9185   4.9256   4.9256   4.9265   4.9265
     4.9276   4.9276   4.9463   4.9463   4.9468   4.9468   4.9485   4.9485
     4.9632   4.9632   4.9656   4.9656   4.9663   4.9663   4.9751   4.9751
     4.9818   4.9818   4.9849   4.9849   4.9865   4.9865   4.9892   4.9892
     4.9925   4.9925   4.9993   4.9993   5.0061   5.0061   5.0080   5.0080
     5.0120   5.0120   5.0273   5.0273   5.0292   5.0292   5.0354   5.0354
     5.0419   5.0419   5.0479   5.0479   5.0520   5.0520   5.0659   5.0659
     5.0720   5.0720   5.0840   5.0840   5.0935   5.0935   5.0984   5.0984
     5.0992   5.0992   5.1150   5.1150   5.1157   5.1157   5.1167   5.1167
     5.1296   5.1296   5.1303   5.1303   5.1355   5.1355   5.1463   5.1463
     5.1482   5.1482   5.1488   5.1488   5.1583   5.1583   5.1718   5.1718
     5.1826   5.1826   5.1943   5.1943   5.1953   5.1953   5.2016   5.2016
     5.2024   5.2024   5.2106   5.2106   5.2200   5.2200   5.2236   5.2236
     5.2265   5.2265   5.2340   5.2340   5.2385   5.2385   5.2418   5.2418
     5.2458   5.2458   5.2516   5.2516   5.2524   5.2524   5.2545   5.2545
     5.2573   5.2573   5.2610   5.2610   5.2795   5.2795   5.2835   5.2835
     5.2913   5.2913   5.3124   5.3124   5.3205   5.3205   5.3213   5.3213
     5.3244   5.3244   5.3284   5.3284   5.3304   5.3304   5.3401   5.3401
     5.3460   5.3460   5.3468   5.3468   5.3469   5.3469   5.3553   5.3553
     5.3596   5.3596   5.3615   5.3615   5.3710   5.3710   5.3782   5.3782
     5.3871   5.3871   5.3929   5.3929   5.3969   5.3969   5.4084   5.4084
     5.4099   5.4099   5.4124   5.4124   5.4193   5.4193   5.4258   5.4258
     5.4270   5.4270   5.4288   5.4288   5.4289   5.4289   5.4372   5.4372
     5.4376   5.4376   5.4491   5.4491   5.4492   5.4492   5.4541   5.4541
     5.4707   5.4707   5.4772   5.4772   5.4805   5.4805   5.4823   5.4823
     5.4941   5.4941   5.4958   5.4958   5.4978   5.4978   5.5079   5.5079
     5.5094   5.5094   5.5097   5.5097   5.5211   5.5211   5.5266   5.5266
     5.5357   5.5357   5.5379   5.5379   5.5459   5.5459   5.5501   5.5501
     5.5523   5.5523   5.5535   5.5535   5.5747   5.5747   5.5793   5.5793
     5.5814   5.5814   5.5848   5.5848   5.5886   5.5886   5.5930   5.5930
     5.5984   5.5984   5.6044   5.6044   5.6071   5.6071   5.6083   5.6083
     5.6129   5.6129   5.6219   5.6219   5.6320   5.6320   5.6326   5.6326
     5.6369   5.6369   5.6381   5.6381   5.6433   5.6433   5.6510   5.6510
     5.6652   5.6652   5.6677   5.6677   5.6711   5.6711   5.6743   5.6743
     5.6913   5.6913   5.6938   5.6938   5.6944   5.6944   5.7056   5.7056
     5.7143   5.7143   5.7216   5.7216   5.7284   5.7284   5.7294   5.7294
     5.7357   5.7357   5.7452   5.7452   5.7457   5.7457   5.7675   5.7675
     5.7683   5.7683   5.7723   5.7723   5.7738   5.7738   5.7740   5.7740
     5.7857   5.7857   5.7900   5.7900   5.7914   5.7914   5.7970   5.7970
     5.7996   5.7996   5.8192   5.8193   5.8218   5.8218   5.8345   5.8345
     5.8359   5.8359   5.8588   5.8588   5.8641   5.8641   5.8689   5.8689
     5.8718   5.8718   5.8779   5.8779   5.8976   5.8976   5.9035   5.9035
     5.9070   5.9070   5.9140   5.9140   5.9141   5.9141   5.9256   5.9256
     5.9280   5.9280   5.9433   5.9433   5.9438   5.9438   5.9465   5.9465
     5.9478   5.9478   5.9481   5.9481   5.9558   5.9558   5.9721   5.9721
     5.9750   5.9750   5.9823   5.9823   5.9824   5.9824   5.9825   5.9825
     5.9842   5.9842   6.0104   6.0104   6.0166   6.0166   6.0198   6.0198
     6.0236   6.0236   6.0247   6.0247   6.0278   6.0278   6.0298   6.0298
     6.0328   6.0328   6.0378   6.0378   6.0595   6.0595   6.0715   6.0715
     6.0922   6.0922   6.1041   6.1041   6.1083   6.1083   6.1093   6.1093
     6.1132   6.1132   6.1183   6.1183   6.1241   6.1241   6.1253   6.1253
     6.1271   6.1271   6.1347   6.1347   6.1455   6.1455   6.1466   6.1466
     6.1504   6.1504   6.1563   6.1563   6.1593   6.1593   6.1600   6.1600
     6.1623   6.1623   6.1742   6.1742   6.1767   6.1767   6.1903   6.1903
     6.1937   6.1937   6.2051   6.2051   6.2051   6.2051   6.2052   6.2052
     6.2081   6.2081   6.2112   6.2112   6.2145   6.2145   6.2162   6.2162
     6.2237   6.2237   6.2277   6.2277   6.2344   6.2344   6.2361   6.2361
     6.2503   6.2503   6.2539   6.2539   6.2564   6.2564   6.2600   6.2600
     6.2715   6.2715   6.2750   6.2750   6.2756   6.2756   6.2757   6.2757
     6.2817   6.2817   6.2831   6.2831   6.2865   6.2865   6.2937   6.2937
     6.2969   6.2969   6.2972   6.2972   6.3004   6.3004   6.3010   6.3010
     6.3143   6.3143   6.3144   6.3144   6.3195   6.3195   6.3211   6.3211
     6.3223   6.3223   6.3272   6.3272   6.3342   6.3342   6.3425   6.3425
     6.3543   6.3543   6.3571   6.3571   6.3622   6.3622   6.3648   6.3648
     6.3663   6.3663   6.3761   6.3761   6.3789   6.3789   6.3838   6.3838
     6.3891   6.3891   6.3894   6.3894   6.3907   6.3907   6.3930   6.3930
     6.3946   6.3946   6.4002   6.4002   6.4003   6.4003   6.4265   6.4265
     6.4354   6.4354   6.4470   6.4470   6.4492   6.4492   6.4536   6.4536
     6.4540   6.4540   6.4582   6.4582   6.4600   6.4600   6.4614   6.4614
     6.4641   6.4641   6.4653   6.4653   6.4809   6.4809   6.4873   6.4873
     6.4892   6.4892   6.4932   6.4932   6.4983   6.4983   6.5050   6.5050
     6.5169   6.5169   6.5402   6.5402   6.5418   6.5418   6.5432   6.5432
     6.5433   6.5433   6.5493   6.5493   6.5641   6.5641   6.5646   6.5646
     6.5678   6.5678   6.5870   6.5870   6.5886   6.5886   6.5974   6.5974
     6.5995   6.5995   6.5995   6.5995   6.6024   6.6024   6.6025   6.6025
     6.6070   6.6070   6.6192   6.6192   6.6267   6.6267   6.6272   6.6272
     6.6299   6.6299   6.6426   6.6426   6.7176   6.7176   6.7186   6.7186
     6.7254   6.7254   6.7425   6.7425   6.7447   6.7447   6.7964   6.7964
     6.8301   6.8301   6.8480   6.8480   6.8542   6.8542   6.8748   6.8748
     6.8776   6.8776   6.9109   6.9109   6.9110   6.9110   6.9661   6.9661
     6.9992   6.9992   7.0641   7.0641   7.0847   7.0847   7.1195   7.1195
     7.1489   7.1489   7.2420   7.2420   7.3239   7.3239   7.3245   7.3245
     7.3414   7.3414   7.4301   7.4301   7.4629   7.4629   7.4847   7.4847
     7.5135   7.5135   7.5676   7.5676   7.5804   7.5804   7.6162   7.6162
     7.6594   7.6594   7.7311   7.7312   7.7838   7.7838   7.7875   7.7875
     7.7930   7.7930   7.8221   7.8221   7.9866   7.9866   8.0153   8.0153
     8.0369   8.0369   8.0831   8.0831   8.1140   8.1140   8.2065   8.2065
     8.2147   8.2147   8.2357   8.2357   8.2561   8.2561   8.2941   8.2941
     8.2998   8.2998   8.4393   8.4393   8.4530   8.4530   8.4791   8.4791
     8.5082   8.5082   8.5499   8.5499   8.6561   8.6561   8.6805   8.6805
     8.7582   8.7582   8.7940   8.7940   8.7953   8.7953   8.8001   8.8001
     8.9361   8.9361   8.9603   8.9603   9.0338   9.0338   9.0368   9.0368
     9.0777   9.0777   9.0922   9.0922   9.1197   9.1197   9.1200   9.1200
     9.1524   9.1524   9.1736   9.1736   9.2183   9.2183   9.2661   9.2661
     9.2793   9.2793   9.4277   9.4277   9.4349   9.4349   9.4445   9.4445
     9.4481   9.4481   9.4830   9.4830   9.6589   9.6589   9.7075   9.7075
     9.7081   9.7081   9.7105   9.7105   9.7678   9.7678   9.7773   9.7773
     9.8411   9.8411   9.9048   9.9048   9.9556   9.9556   9.9826   9.9826
    10.0121  10.0121  10.0861  10.0861  10.1378  10.1378  10.1753  10.1753
    10.2303  10.2303  10.3585  10.3585  10.4072  10.4072  10.4494  10.4494
    10.4914  10.4914  10.5418  10.5418  10.6180  10.6180  10.6335  10.6335
    10.6516  10.6516  10.6523  10.6523  10.6635  10.6635  10.7169  10.7169
    10.9127  10.9127  10.9775  10.9775  11.0145  11.0145  11.0274  11.0274
    11.1101  11.1101  11.1341  11.1341  11.2091  11.2091  11.2248  11.2248
    11.2606  11.2606  11.3006  11.3006  11.3089  11.3089  11.3202  11.3202
    11.3340  11.3340  11.3796  11.3796  11.4415  11.4415  11.4990  11.4990
    11.5259  11.5259  11.5990  11.5990  11.6091  11.6091  11.6359  11.6359
    11.6929  11.6929  11.7603  11.7603  11.7671  11.7671  11.7723  11.7723
    11.8430  11.8430  11.8434  11.8434  11.8741  11.8741  12.0151  12.0151
    12.0287  12.0287  12.0817  12.0817  12.0884  12.0884  12.0927  12.0927
    12.0991  12.0991  12.1876  12.1876  12.2303  12.2303  12.2589  12.2589
    12.2954  12.2954  12.3867  12.3867  12.4261  12.4261  12.4475  12.4475
    12.4923  12.4923  12.5343  12.5343  12.5529  12.5529  12.5788  12.5788
    12.5810  12.5810  12.6147  12.6147  12.6668  12.6668  12.7281  12.7281
    12.7650  12.7650  12.7787  12.7787  12.8325  12.8325  12.9113  12.9113
    12.9157  12.9157  12.9247  12.9247  12.9506  12.9506  13.0058  13.0058
    13.0220  13.0220  13.1168  13.1168  13.1307  13.1307  13.1929  13.1929
    13.2289  13.2289  13.2742  13.2742  13.2776  13.2776  13.3041  13.3042
    13.3265  13.3265  13.4002  13.4002  13.4214  13.4214  13.4308  13.4308
    13.4391  13.4391  13.4527  13.4527  13.5588  13.5588  13.6142  13.6144
    13.6182  13.6182  13.6328  13.6328  13.6491  13.6491  13.6769  13.6769
    13.7156  13.7156  13.7431  13.7431  13.7515  13.7515  13.7994  13.7994
    13.8663  13.8667  13.8985  13.8985  14.0073  14.0073  14.0115  14.0115
    14.0388  14.0388  14.0514  14.0514  14.1039  14.1039  14.1162  14.1162
    14.1445  14.1446  14.1901  14.1901  14.2001  14.2001  14.2198  14.2198
    14.2505  14.2505  14.2546  14.2546  14.3440  14.3440  14.3936  14.3936
    14.4558  14.4565  14.4682  14.4682  14.5070  14.5070  14.5084  14.5084
    14.6142  14.6142  14.6260  14.6313  14.6313

          k = 0.2500 0.0962 0.0000 (220225 PWs)   bands (ev):

    -0.7372  -0.4406  -0.3967  -0.1549  -0.1061  -0.0847   0.0988   0.1714
     0.1798   0.2399   0.3815   0.4365   0.4920   0.6178   0.6469   0.6743
     0.7139   0.7344   0.9016   0.9457   0.9505   1.0348   1.0430   1.1485
     1.1544   1.1652   1.1978   1.2038   1.2655   1.2719   1.2808   1.2943
     1.3081   1.3872   1.3916   1.4699   1.4778   1.4963   1.5128   1.5596
     1.5749   1.5861   1.6011   1.6171   1.6296   1.6347   1.6490   1.6503
     1.6524   1.6688   1.6767   1.6799   1.7011   1.7087   1.7200   1.7420
     1.7712   1.7732   1.7828   1.7841   1.7874   1.7997   1.8188   1.8191
     1.8489   1.8668   1.8749   1.8782   1.8936   1.8996   1.9017   1.9138
     1.9188   1.9254   1.9257   1.9640   1.9816   1.9843   2.0013   2.0014
     2.0122   2.0128   2.0165   2.0199   2.0350   2.0357   2.0455   2.0479
     2.0638   2.0689   2.0731   2.0744   2.0791   2.0923   2.1039   2.1064
     2.1073   2.1109   2.1175   2.1238   2.1250   2.1308   2.1390   2.1459
     2.1481   2.1538   2.1538   2.1546   2.1584   2.1597   2.1605   2.1633
     2.1651   2.1707   2.1812   2.1913   2.1930   2.2023   2.2041   2.2085
     2.2132   2.2156   2.2209   2.2211   2.2287   2.2301   2.2415   2.2444
     2.2483   2.2684   2.2786   2.2801   2.2804   2.2810   2.2835   2.2860
     2.2883   2.2889   2.2920   2.2942   2.2967   2.3010   2.3047   2.3110
     2.3162   2.3278   2.3413   2.3423   2.3425   2.3456   2.3516   2.3517
     2.3562   2.3624   2.3667   2.3730   2.3735   2.3863   2.3875   2.3885
     2.3889   2.4043   2.4081   2.4083   2.4121   2.4141   2.4177   2.4277
     2.4322   2.4338   2.4361   2.4403   2.4492   2.4520   2.4554   2.4580
     2.4591   2.4700   2.4724   2.4734   2.4802   2.4815   2.4923   2.4929
     2.4967   2.5015   2.5060   2.5077   2.5109   2.5225   2.5233   2.5340
     2.5377   2.5388   2.5418   2.5466   2.5472   2.5508   2.5719   2.5780
     2.5816   2.5873   2.5896   2.5897   2.5900   2.5907   2.5947   2.5970
     2.5972   2.5987   2.6015   2.6201   2.6242   2.6296   2.6332   2.6379
     2.6393   2.6409   2.6478   2.6484   2.6627   2.6631   2.6632   2.6679
     2.6756   2.6764   2.6785   2.6848   2.6855   2.6937   2.6955   2.7062
     2.7098   2.7122   2.7157   2.7200   2.7209   2.7222   2.7238   2.7239
     2.7323   2.7329   2.7333   2.7396   2.7506   2.7516   2.7524   2.7531
     2.7623   2.7626   2.7773   2.7859   2.7889   2.7896   2.7928   2.7934
     2.7937   2.8030   2.8040   2.8118   2.8250   2.8260   2.8306   2.8312
     2.8323   2.8480   2.8610   2.8637   2.8651   2.8652   2.8660   2.8672
     2.8787   2.8857   2.8937   2.8952   2.8979   2.8996   2.9006   2.9053
     2.9060   2.9154   2.9191   2.9192   2.9229   2.9236   2.9330   2.9372
     2.9482   2.9515   2.9523   2.9698   2.9764   2.9845   2.9913   2.9916
     2.9946   3.0025   3.0086   3.0185   3.0231   3.0232   3.0251   3.0294
     3.0343   3.0441   3.0606   3.0639   3.0732   3.0745   3.0752   3.0848
     3.0915   3.1064   3.1098   3.1112   3.1113   3.1140   3.1230   3.1269
     3.1436   3.1447   3.1539   3.1627   3.1680   3.1691   3.1693   3.1707
     3.1760   3.1772   3.1786   3.1790   3.1879   3.1887   3.1941   3.1955
     3.1959   3.2073   3.2210   3.2220   3.2239   3.2248   3.2294   3.2307
     3.2327   3.2427   3.2436   3.2544   3.2576   3.2594   3.2597   3.2738
     3.2837   3.2872   3.2934   3.2958   3.2960   3.2990   3.2994   3.3045
     3.3060   3.3062   3.3099   3.3187   3.3239   3.3244   3.3244   3.3288
     3.3291   3.3295   3.3324   3.3382   3.3393   3.3466   3.3479   3.3480
     3.3514   3.3578   3.3596   3.3597   3.3629   3.3673   3.3720   3.3795
     3.3833   3.3858   3.3859   3.3885   3.3901   3.3983   3.4079   3.4113
     3.4116   3.4133   3.4145   3.4165   3.4366   3.4375   3.4376   3.4425
     3.4469   3.4472   3.4516   3.4519   3.4592   3.4623   3.4693   3.4703
     3.4711   3.4730   3.4782   3.4805   3.4854   3.4857   3.4892   3.4911
     3.5042   3.5048   3.5052   3.5071   3.5223   3.5223   3.5240   3.5312
     3.5334   3.5341   3.5375   3.5395   3.5487   3.5526   3.5528   3.5530
     3.5592   3.5614   3.5625   3.5648   3.5678   3.5776   3.5864   3.5890
     3.5923   3.5963   3.5970   3.5983   3.5998   3.6022   3.6085   3.6090
     3.6103   3.6110   3.6134   3.6172   3.6174   3.6215   3.6243   3.6291
     3.6307   3.6441   3.6496   3.6513   3.6545   3.6588   3.6612   3.6687
     3.6702   3.6737   3.6738   3.6838   3.6918   3.6932   3.6970   3.7051
     3.7059   3.7101   3.7139   3.7154   3.7161   3.7176   3.7215   3.7227
     3.7228   3.7246   3.7296   3.7350   3.7370   3.7467   3.7480   3.7592
     3.7634   3.7661   3.7744   3.7751   3.7777   3.7778   3.7921   3.7956
     3.8030   3.8086   3.8099   3.8127   3.8145   3.8156   3.8178   3.8272
     3.8287   3.8314   3.8375   3.8380   3.8390   3.8414   3.8415   3.8470
     3.8500   3.8542   3.8569   3.8589   3.8598   3.8618   3.8621   3.8636
     3.8702   3.8711   3.8754   3.8801   3.8803   3.8812   3.8816   3.8836
     3.8853   3.8922   3.8936   3.8954   3.8983   3.9000   3.9088   3.9143
     3.9185   3.9309   3.9332   3.9338   3.9343   3.9345   3.9347   3.9349
     3.9355   3.9449   3.9521   3.9532   3.9544   3.9557   3.9575   3.9580
     3.9627   3.9661   3.9724   3.9725   3.9742   3.9743   3.9757   3.9762
     3.9765   3.9806   3.9817   3.9832   3.9838   3.9897   3.9929   3.9973
     3.9978   4.0021   4.0053   4.0098   4.0103   4.0116   4.0187   4.0234
     4.0302   4.0306   4.0324   4.0332   4.0334   4.0339   4.0358   4.0458
     4.0520   4.0543   4.0562   4.0582   4.0634   4.0640   4.0661   4.0663
     4.0728   4.0745   4.0746   4.0780   4.0783   4.0807   4.0811   4.0814
     4.0827   4.0921   4.0927   4.0957   4.0958   4.0961   4.0963   4.0972
     4.0989   4.1009   4.1017   4.1053   4.1062   4.1097   4.1105   4.1109
     4.1114   4.1139   4.1258   4.1282   4.1300   4.1321   4.1321   4.1375
     4.1379   4.1380   4.1483   4.1485   4.1501   4.1529   4.1538   4.1557
     4.1585   4.1610   4.1646   4.1683   4.1692   4.1747   4.1752   4.1781
     4.1813   4.1826   4.1832   4.1845   4.1860   4.1890   4.1911   4.1915
     4.1930   4.1936   4.1977   4.1985   4.1989   4.2004   4.2021   4.2038
     4.2054   4.2078   4.2082   4.2084   4.2085   4.2121   4.2186   4.2190
     4.2202   4.2222   4.2227   4.2241   4.2285   4.2287   4.2288   4.2299
     4.2312   4.2345   4.2367   4.2462   4.2472   4.2505   4.2508   4.2519
     4.2584   4.2647   4.2667   4.2697   4.2721   4.2730   4.2863   4.2908
     4.2918   4.2926   4.2934   4.2938   4.2963   4.2966   4.2983   4.2994
     4.3025   4.3031   4.3036   4.3040   4.3122   4.3122   4.3212   4.3216
     4.3228   4.3297   4.3304   4.3322   4.3329   4.3331   4.3408   4.3421
     4.3455   4.3512   4.3526   4.3541   4.3572   4.3578   4.3596   4.3622
     4.3649   4.3652   4.3674   4.3687   4.3763   4.3787   4.3838   4.3869
     4.3879   4.3934   4.3941   4.3963   4.3965   4.3982   4.4039   4.4058
     4.4063   4.4071   4.4127   4.4134   4.4216   4.4266   4.4274   4.4320
     4.4340   4.4355   4.4377   4.4399   4.4399   4.4438   4.4497   4.4509
     4.4528   4.4594   4.4609   4.4619   4.4648   4.4714   4.4752   4.4803
     4.4825   4.4900   4.4953   4.4979   4.4989   4.4993   4.5010   4.5038
     4.5131   4.5141   4.5179   4.5230   4.5242   4.5337   4.5339   4.5345
     4.5366   4.5408   4.5423   4.5426   4.5430   4.5478   4.5524   4.5553
     4.5556   4.5560   4.5609   4.5695   4.5759   4.5821   4.5829   4.5895
     4.5976   4.6009   4.6016   4.6044   4.6067   4.6097   4.6190   4.6208
     4.6215   4.6236   4.6272   4.6296   4.6341   4.6363   4.6384   4.6426
     4.6468   4.6477   4.6508   4.6524   4.6567   4.6622   4.6655   4.6739
     4.6754   4.6784   4.6794   4.6796   4.6851   4.6852   4.6877   4.6883
     4.6904   4.6926   4.6995   4.7013   4.7084   4.7123   4.7145   4.7161
     4.7167   4.7179   4.7231   4.7244   4.7267   4.7276   4.7304   4.7345
     4.7463   4.7483   4.7554   4.7569   4.7580   4.7613   4.7638   4.7676
     4.7706   4.7717   4.7863   4.7892   4.7894   4.7935   4.7960   4.7961
     4.8001   4.8045   4.8184   4.8188   4.8269   4.8322   4.8335   4.8366
     4.8403   4.8431   4.8437   4.8488   4.8544   4.8633   4.8683   4.8742
     4.8755   4.8807   4.8936   4.8998   4.9099   4.9105   4.9153   4.9179
[...]
     atom   58 type  1   force =     0.00000000    0.00056183   -0.00390330
     atom   59 type  1   force =     0.00000221    0.00056204   -0.00390304
     atom   60 type  1   force =     0.00000000    0.00056245   -0.00390160
     atom   61 type  1   force =    -0.00000187   -0.00053456    0.00451828
     atom   62 type  1   force =    -0.00000189   -0.00053451    0.00451832
     atom   63 type  1   force =    -0.00000188   -0.00053451    0.00451820
     atom   64 type  1   force =    -0.00000178   -0.00053449    0.00451713
     atom   65 type  1   force =    -0.00000175   -0.00053446    0.00451717
     atom   66 type  1   force =     0.00000189   -0.00053448    0.00451816
     atom   67 type  1   force =     0.00000187   -0.00053456    0.00451828
     atom   68 type  1   force =     0.00000189   -0.00053451    0.00451832
     atom   69 type  1   force =     0.00000188   -0.00053451    0.00451820
     atom   70 type  1   force =    -0.00000218    0.00056206   -0.00390303
     atom   71 type  1   force =    -0.00000219    0.00056217   -0.00390303
     atom   72 type  1   force =     0.00000218    0.00056206   -0.00390303
     atom   73 type  1   force =     0.00000219    0.00056217   -0.00390303
     atom   74 type  1   force =     0.00000000    0.00056236   -0.00390149
     atom   75 type  1   force =     0.00000000    0.00056235   -0.00390144
     atom   76 type  1   force =     0.00000000    0.00056241   -0.00390149
     atom   77 type  1   force =    -0.00000177   -0.00053445    0.00451708
     atom   78 type  1   force =     0.00000178   -0.00053449    0.00451713
     atom   79 type  1   force =     0.00000175   -0.00053446    0.00451717
     atom   80 type  1   force =     0.00000177   -0.00053445    0.00451708
     atom   81 type  1   force =     0.00000193   -0.00045209   -0.00053414
     atom   82 type  1   force =     0.00000000    0.00028682   -0.00076469
     atom   83 type  1   force =    -0.00000228    0.00028769   -0.00076532
     atom   84 type  1   force =     0.00000000    0.00028814   -0.00076663
     atom   85 type  1   force =    -0.00000241   -0.00045254   -0.00053480
     atom   86 type  1   force =     0.00000000    0.00028673   -0.00076474
     atom   87 type  1   force =    -0.00000233    0.00028765   -0.00076542
     atom   88 type  1   force =    -0.00000226    0.00028759   -0.00076535
     atom   89 type  1   force =     0.00000000    0.00028801   -0.00076671
     atom   90 type  1   force =     0.00000233    0.00028765   -0.00076542
     atom   91 type  1   force =    -0.00000240   -0.00045256   -0.00053481
     atom   92 type  1   force =    -0.00000193   -0.00045209   -0.00053414
     atom   93 type  1   force =    -0.00000191   -0.00045212   -0.00053418
     atom   94 type  1   force =     0.00000191   -0.00045212   -0.00053418
     atom   95 type  1   force =     0.00000241   -0.00045254   -0.00053480
     atom   96 type  1   force =     0.00000000    0.00028669   -0.00076474
     atom   97 type  1   force =    -0.00000225    0.00028759   -0.00076535
     atom   98 type  1   force =     0.00000000    0.00028798   -0.00076666
     atom   99 type  1   force =     0.00000228    0.00028769   -0.00076532
     atom  100 type  1   force =     0.00000225    0.00028759   -0.00076535
     atom  101 type  1   force =    -0.00000240   -0.00045259   -0.00053475
     atom  102 type  1   force =    -0.00000235   -0.00045260   -0.00053474
     atom  103 type  1   force =    -0.00000191   -0.00045213   -0.00053414
     atom  104 type  1   force =    -0.00000191   -0.00045214   -0.00053409
     atom  105 type  1   force =     0.00000191   -0.00045213   -0.00053414
     atom  106 type  1   force =     0.00000240   -0.00045256   -0.00053481
     atom  107 type  1   force =     0.00000240   -0.00045259   -0.00053475
     atom  108 type  1   force =     0.00000000    0.00028670   -0.00076470
     atom  109 type  1   force =     0.00000000    0.00028799   -0.00076669
     atom  110 type  1   force =     0.00000226    0.00028759   -0.00076535
     atom  111 type  1   force =     0.00000191   -0.00045214   -0.00053409
     atom  112 type  1   force =     0.00000235   -0.00045260   -0.00053474
     atom  113 type  1   force =    -0.00000129   -0.00018606    0.00040738
     atom  114 type  1   force =     0.00000130   -0.00018597    0.00040735
     atom  115 type  1   force =     0.00000000    0.00019626   -0.00056522
     atom  116 type  1   force =    -0.00000130   -0.00018597    0.00040735
     atom  117 type  1   force =    -0.00000155   -0.00018616    0.00040748
     atom  118 type  1   force =    -0.00000157   -0.00018622    0.00040748
     atom  119 type  1   force =     0.00000155   -0.00018616    0.00040748
     atom  120 type  1   force =    -0.00000241    0.00019701   -0.00056589
     atom  121 type  1   force =    -0.00000240    0.00019714   -0.00056593
     atom  122 type  1   force =     0.00000000    0.00019635   -0.00056525
     atom  123 type  1   force =     0.00000241    0.00019701   -0.00056589
     atom  124 type  1   force =     0.00000000    0.00019652   -0.00056670
     atom  125 type  1   force =    -0.00000128   -0.00018593    0.00040740
     atom  126 type  1   force =    -0.00000129   -0.00018591    0.00040739
     atom  127 type  1   force =    -0.00000154   -0.00018611    0.00040750
     atom  128 type  1   force =    -0.00000155   -0.00018612    0.00040752
     atom  129 type  1   force =     0.00000157   -0.00018622    0.00040748
     atom  130 type  1   force =     0.00000154   -0.00018611    0.00040750
     atom  131 type  1   force =     0.00000155   -0.00018612    0.00040752
     atom  132 type  1   force =     0.00000129   -0.00018606    0.00040738
     atom  133 type  1   force =     0.00000128   -0.00018593    0.00040740
     atom  134 type  1   force =     0.00000129   -0.00018591    0.00040739
     atom  135 type  1   force =    -0.00000241    0.00019704   -0.00056589
     atom  136 type  1   force =    -0.00000241    0.00019706   -0.00056588
     atom  137 type  1   force =     0.00000000    0.00019624   -0.00056526
     atom  138 type  1   force =     0.00000000    0.00019626   -0.00056522
     atom  139 type  1   force =     0.00000240    0.00019714   -0.00056593
     atom  140 type  1   force =     0.00000241    0.00019704   -0.00056589
     atom  141 type  1   force =     0.00000241    0.00019706   -0.00056588
     atom  142 type  1   force =     0.00000000    0.00019662   -0.00056667
     atom  143 type  1   force =     0.00000000    0.00019652   -0.00056663
     atom  144 type  1   force =     0.00000000    0.00019657   -0.00056661
     atom  145 type  1   force =    -0.00000245    0.00018764   -0.00040927
     atom  146 type  1   force =     0.00000000    0.00018726   -0.00040978
     atom  147 type  1   force =     0.00000245    0.00018764   -0.00040927
     atom  148 type  1   force =    -0.00000242   -0.00019612    0.00056442
     atom  149 type  1   force =    -0.00000179   -0.00019507    0.00056452
     atom  150 type  1   force =    -0.00000179   -0.00019507    0.00056453
     atom  151 type  1   force =    -0.00000246    0.00018756   -0.00040921
     atom  152 type  1   force =    -0.00000243    0.00018755   -0.00040926
     atom  153 type  1   force =    -0.00000246    0.00018754   -0.00040924
     atom  154 type  1   force =     0.00000000    0.00018719   -0.00040974
     atom  155 type  1   force =     0.00000000    0.00018718   -0.00040982
     atom  156 type  1   force =     0.00000000    0.00018722   -0.00040978
     atom  157 type  1   force =     0.00000246    0.00018756   -0.00040921
     atom  158 type  1   force =     0.00000243    0.00018755   -0.00040926
     atom  159 type  1   force =     0.00000246    0.00018754   -0.00040924
     atom  160 type  1   force =     0.00000000    0.00018824   -0.00041063
     atom  161 type  1   force =     0.00000000    0.00018816   -0.00041060
     atom  162 type  1   force =     0.00000000    0.00018814   -0.00041065
     atom  163 type  1   force =     0.00000000    0.00018817   -0.00041063
     atom  164 type  1   force =    -0.00000242   -0.00019616    0.00056445
     atom  165 type  1   force =    -0.00000242   -0.00019613    0.00056443
     atom  166 type  1   force =    -0.00000243   -0.00019620    0.00056439
     atom  167 type  1   force =    -0.00000179   -0.00019508    0.00056450
     atom  168 type  1   force =    -0.00000179   -0.00019514    0.00056445
     atom  169 type  1   force =     0.00000179   -0.00019507    0.00056452
     atom  170 type  1   force =     0.00000179   -0.00019507    0.00056453
     atom  171 type  1   force =     0.00000179   -0.00019508    0.00056450
     atom  172 type  1   force =     0.00000179   -0.00019514    0.00056445
     atom  173 type  1   force =     0.00000242   -0.00019612    0.00056442
     atom  174 type  1   force =     0.00000242   -0.00019616    0.00056445
     atom  175 type  1   force =     0.00000242   -0.00019613    0.00056443
     atom  176 type  1   force =     0.00000243   -0.00019620    0.00056439
     atom  177 type  1   force =     0.00000000    0.00045253    0.00054108
     atom  178 type  1   force =     0.00000000    0.00045251    0.00054101
     atom  179 type  1   force =    -0.00000334    0.00045342    0.00054125
     atom  180 type  1   force =    -0.00000335    0.00045336    0.00054124
     atom  181 type  1   force =     0.00000000    0.00045277    0.00054060
     atom  182 type  1   force =     0.00000334    0.00045342    0.00054125
     atom  183 type  1   force =    -0.00000241   -0.00028651    0.00076826
     atom  184 type  1   force =    -0.00000244   -0.00028672    0.00076939
     atom  185 type  1   force =     0.00000244   -0.00028672    0.00076939
     atom  186 type  1   force =     0.00000000    0.00045246    0.00054102
     atom  187 type  1   force =    -0.00000335    0.00045334    0.00054123
     atom  188 type  1   force =    -0.00000335    0.00045334    0.00054118
     atom  189 type  1   force =     0.00000000    0.00045272    0.00054060
     atom  190 type  1   force =     0.00000000    0.00045272    0.00054056
     atom  191 type  1   force =     0.00000335    0.00045334    0.00054123
     atom  192 type  1   force =     0.00000335    0.00045334    0.00054118
     atom  193 type  1   force =    -0.00000241   -0.00028649    0.00076821
     atom  194 type  1   force =    -0.00000240   -0.00028658    0.00076831
     atom  195 type  1   force =    -0.00000241   -0.00028660    0.00076822
     atom  196 type  1   force =    -0.00000242   -0.00028668    0.00076935
     atom  197 type  1   force =    -0.00000242   -0.00028677    0.00076937
     atom  198 type  1   force =    -0.00000244   -0.00028678    0.00076938
     atom  199 type  1   force =     0.00000242   -0.00028668    0.00076935
     atom  200 type  1   force =     0.00000242   -0.00028677    0.00076937
     atom  201 type  1   force =     0.00000244   -0.00028678    0.00076938
     atom  202 type  1   force =     0.00000241   -0.00028651    0.00076826
     atom  203 type  1   force =     0.00000241   -0.00028649    0.00076821
     atom  204 type  1   force =     0.00000240   -0.00028658    0.00076831
     atom  205 type  1   force =     0.00000241   -0.00028660    0.00076822
     atom  206 type  1   force =     0.00000000    0.00045248    0.00054110
     atom  207 type  1   force =     0.00000000    0.00045272    0.00054060
     atom  208 type  1   force =     0.00000335    0.00045336    0.00054124
     atom  209 type  1   force =    -0.00000159   -0.00056121    0.00389695
     atom  210 type  1   force =    -0.00000112   -0.00056157    0.00389641
     atom  211 type  1   force =     0.00000112   -0.00056157    0.00389641
     atom  212 type  1   force =     0.00000157   -0.00056133    0.00389705
     atom  213 type  1   force =    -0.00000254    0.00053481   -0.00452320
     atom  214 type  1   force =     0.00000000    0.00053597   -0.00452340
     atom  215 type  1   force =     0.00000257    0.00053495   -0.00452314
     atom  216 type  1   force =     0.00000000    0.00053384   -0.00452257
     atom  217 type  1   force =    -0.00000154   -0.00056125    0.00389692
     atom  218 type  1   force =    -0.00000157   -0.00056133    0.00389705
     atom  219 type  1   force =    -0.00000159   -0.00056120    0.00389693
     atom  220 type  1   force =    -0.00000115   -0.00056160    0.00389645
     atom  221 type  1   force =    -0.00000119   -0.00056167    0.00389641
     atom  222 type  1   force =     0.00000115   -0.00056160    0.00389645
     atom  223 type  1   force =     0.00000119   -0.00056167    0.00389641
     atom  224 type  1   force =     0.00000154   -0.00056125    0.00389692
     atom  225 type  1   force =     0.00000159   -0.00056121    0.00389695
     atom  226 type  1   force =    -0.00000256    0.00053482   -0.00452313
     atom  227 type  1   force =    -0.00000257    0.00053495   -0.00452314
     atom  228 type  1   force =    -0.00000253    0.00053490   -0.00452315
     atom  229 type  1   force =     0.00000000    0.00053579   -0.00452341
     atom  230 type  1   force =     0.00000000    0.00053583   -0.00452343
     atom  231 type  1   force =     0.00000256    0.00053482   -0.00452313
     atom  232 type  1   force =     0.00000254    0.00053481   -0.00452320
     atom  233 type  1   force =     0.00000000    0.00053375   -0.00452257
     atom  234 type  1   force =     0.00000000    0.00053367   -0.00452263
     atom  235 type  1   force =    -0.00000113   -0.00056157    0.00389639
     atom  236 type  1   force =     0.00000113   -0.00056157    0.00389639
     atom  237 type  1   force =     0.00000159   -0.00056120    0.00389693
     atom  238 type  1   force =     0.00000000    0.00053588   -0.00452343
     atom  239 type  1   force =     0.00000253    0.00053490   -0.00452315
     atom  240 type  1   force =     0.00000000    0.00053377   -0.00452257
     atom  241 type  1   force =    -0.00000265   -0.00336651    0.01657622
     atom  242 type  1   force =     0.00000000   -0.00336653    0.01657587
     atom  243 type  1   force =     0.00000270   -0.00336645    0.01657631
     atom  244 type  1   force =     0.00000000   -0.00336605    0.01657805
     atom  245 type  1   force =    -0.00000120    0.00160646    0.00967405
     atom  246 type  1   force =    -0.00000125    0.00160786    0.00967126
     atom  247 type  1   force =     0.00000125    0.00160786    0.00967126
     atom  248 type  1   force =     0.00000127    0.00160647    0.00967425
     atom  249 type  1   force =    -0.00000267   -0.00336633    0.01657611
     atom  250 type  1   force =    -0.00000270   -0.00336645    0.01657631
     atom  251 type  1   force =    -0.00000265   -0.00336649    0.01657614
     atom  252 type  1   force =     0.00000000   -0.00336629    0.01657595
     atom  253 type  1   force =     0.00000000   -0.00336646    0.01657591
     atom  254 type  1   force =     0.00000267   -0.00336633    0.01657611
     atom  255 type  1   force =     0.00000265   -0.00336651    0.01657622
     atom  256 type  1   force =     0.00000000   -0.00336601    0.01657792
     atom  257 type  1   force =     0.00000000   -0.00336609    0.01657800
     atom  258 type  1   force =    -0.00000122    0.00160646    0.00967430
     atom  259 type  1   force =    -0.00000127    0.00160647    0.00967425
     atom  260 type  1   force =    -0.00000122    0.00160644    0.00967410
     atom  261 type  1   force =    -0.00000129    0.00160782    0.00967129
     atom  262 type  1   force =    -0.00000127    0.00160773    0.00967121
     atom  263 type  1   force =     0.00000129    0.00160782    0.00967129
     atom  264 type  1   force =     0.00000127    0.00160773    0.00967121
     atom  265 type  1   force =     0.00000122    0.00160646    0.00967430
     atom  266 type  1   force =     0.00000120    0.00160646    0.00967405
     atom  267 type  1   force =     0.00000000   -0.00336641    0.01657575
     atom  268 type  1   force =     0.00000265   -0.00336649    0.01657614
     atom  269 type  1   force =     0.00000000   -0.00336602    0.01657776
     atom  270 type  1   force =    -0.00000130    0.00160778    0.00967106
     atom  271 type  1   force =     0.00000130    0.00160778    0.00967106
     atom  272 type  1   force =     0.00000122    0.00160644    0.00967410
     atom  273 type  1   force =    -0.00000013    0.00165066   -0.02670189
     atom  274 type  1   force =     0.00000133    0.00164849   -0.02670523
     atom  275 type  1   force =    -0.00000118    0.00164844   -0.02670486
     atom  276 type  1   force =     0.00000032    0.00165087   -0.02670169
     atom  277 type  1   force =    -0.00000017    0.00165085   -0.02670192
     atom  278 type  1   force =    -0.00000032    0.00165087   -0.02670169
     atom  279 type  1   force =    -0.00000023    0.00165092   -0.02670181
     atom  280 type  1   force =     0.00000121    0.00164871   -0.02670512
     atom  281 type  1   force =     0.00000118    0.00164844   -0.02670486
     atom  282 type  1   force =    -0.00000121    0.00164871   -0.02670512
     atom  283 type  1   force =    -0.00000133    0.00164849   -0.02670523
     atom  284 type  1   force =     0.00000017    0.00165085   -0.02670192
     atom  285 type  1   force =     0.00000013    0.00165066   -0.02670189
     atom  286 type  1   force =     0.00000023    0.00165092   -0.02670181
     atom  287 type  1   force =     0.00000116    0.00164859   -0.02670497
     atom  288 type  1   force =    -0.00000116    0.00164859   -0.02670497

     Total force =     0.190702     Total SCF correction =     0.001562
 
     init_run     :    544.91s CPU    291.38s WALL (       1 calls)
     electrons    :  35446.33s CPU  18491.03s WALL (       1 calls)
     forces       :    278.15s CPU    155.01s WALL (       1 calls)

     Called by init_run:
     wfcinit      :    536.02s CPU    284.87s WALL (       1 calls)
     potinit      :      1.59s CPU      0.86s WALL (       1 calls)
     hinit0       :      2.38s CPU      1.50s WALL (       1 calls)

     Called by electrons:
     c_bands      :  32463.47s CPU  16913.72s WALL (      23 calls)
     sum_band     :   2911.70s CPU   1533.95s WALL (      23 calls)
     v_of_rho     :     15.59s CPU      8.52s WALL (      23 calls)
     newd         :     52.90s CPU     33.47s WALL (      23 calls)
     mix_rho      :      3.77s CPU      2.18s WALL (      23 calls)

     Called by c_bands:
     init_us_2    :     88.29s CPU     44.95s WALL (     288 calls)
     cegterg      :  32091.66s CPU  16723.63s WALL (     138 calls)

     Called by *egterg:
     cdiaghg      :   6238.98s CPU   3297.00s WALL (    1108 calls)
     h_psi        :  11021.04s CPU   5713.23s WALL (    1120 calls)
     s_psi        :   3120.53s CPU   1580.14s WALL (    1120 calls)
     g_psi        :     22.81s CPU     11.57s WALL (     976 calls)

     Called by h_psi:
     h_psi:calbec :   3157.33s CPU   1696.58s WALL (    1120 calls)
     vloc_psi     :   4848.03s CPU   2473.25s WALL (    1120 calls)
     add_vuspsi   :   2969.37s CPU   1505.39s WALL (    1120 calls)

     General routines
     calbec       :   4756.18s CPU   2560.02s WALL (    1282 calls)
     fft          :     13.70s CPU      7.39s WALL (     309 calls)
     ffts         :      0.65s CPU      0.36s WALL (      46 calls)
     fftw         :   5241.95s CPU   2675.71s WALL ( 1439648 calls)
     interpolate  :      1.41s CPU      0.75s WALL (      23 calls)
 
     Parallel routines
     fft_scatt_xy :   1138.92s CPU    581.03s WALL ( 1440003 calls)
     fft_scatt_yz :   1748.83s CPU    898.21s WALL ( 1440003 calls)
 
     PWSCF        :     10h 4m CPU      5h15m WALL

 
   This run was terminated on:  12:33:39  17Sep2021            

=------------------------------------------------------------------------------=
   JOB DONE.
=------------------------------------------------------------------------------=
