
     Program PWSCF v.6.6 starts on  8Sep2021 at  4:38:32 

     This program is part of the open-source Quantum ESPRESSO suite
     for quantum simulation of materials; please cite
         "P. Giannozzi et al., J. Phys.:Condens. Matter 21 395502 (2009);
         "P. Giannozzi et al., J. Phys.:Condens. Matter 29 465901 (2017);
          URL http://www.quantum-espresso.org", 
     in publications or presentations arising from this work. More details at
     http://www.quantum-espresso.org/quote

     Parallel version (MPI & OpenMP), running on     192 processor cores
     Number of MPI processes:                48
     Threads/MPI process:                     4

     MPI processes distributed on     4 nodes
     K-points division:     npool     =       2
     R & G space division:  proc/nbgrp/npool/nimage =      24
     Fft bands division:     nmany     =       1
     Reading input from ../inputs/input_ausurf_72

     Current dimensions of program PWSCF are:
     Max number of different atomic species (ntypx) = 10
     Max number of k-points (npk) =  40000
     Max angular momentum in pseudopotentials (lmaxx) =  3

     Subspace diagonalization in iterative solution of the eigenvalue problem:
     one sub-group per band group will be used
     ELPA distributed-memory algorithm (size of sub-group:  4*  4 procs)

     Found symmetry operation: I + ( -0.5000  0.0000  0.0000)
     This is a supercell, fractional translations are disabled
 
     Parallelization info
     --------------------
     sticks:   dense  smooth     PW     G-vecs:    dense   smooth      PW
     Min         250     113     31                59382    18341    2625
     Max         251     114     33                59393    18366    2632
     Sum        6001    2733    755              1425285   440649   63085
 

     Title: 
      Ausurf                                                                    


     bravais-lattice index     =            8
     lattice parameter (alat)  =      11.1494  a.u.
     unit-cell volume          =   12888.9871 (a.u.)^3
     number of atoms/cell      =           72
     number of atomic types    =            1
     number of electrons       =       792.00
     number of Kohn-Sham states=          475
     kinetic-energy cutoff     =      40.0000  Ry
     charge density cutoff     =     350.0000  Ry
     convergence threshold     =      1.0E-06
     mixing beta               =       0.7000
     number of iterations used =            8  TF        mixing
     Exchange-correlation=  SLA  PW   PBE  PBE
                           (   1   4   3   4   0   0   0)

     celldm(1)=  11.149384  celldm(2)=   1.732051  celldm(3)=   5.369150
     celldm(4)=   0.000000  celldm(5)=   0.000000  celldm(6)=   0.000000

     crystal axes: (cart. coord. in units of alat)
               a(1) = (   1.000000   0.000000   0.000000 )  
               a(2) = (   0.000000   1.732051   0.000000 )  
               a(3) = (   0.000000   0.000000   5.369150 )  

     reciprocal axes: (cart. coord. in units 2 pi/alat)
               b(1) = (  1.000000  0.000000  0.000000 )  
               b(2) = (  0.000000  0.577350  0.000000 )  
               b(3) = (  0.000000  0.000000  0.186249 )  


     PseudoPot. # 1 for Au read from file:
     /marconi/home/userexternal/czeni000/dft_src/pseudo/Au.pbe-nd-van.UPF
     MD5 check sum: deb5c07af10777505a79e28f5b4b4115
     Pseudo is Ultrasoft + core correction, Zval = 11.0
     Generated by new atomic code, or converted to UPF format
     Using radial grid of  985 points,  3 beta functions with: 
                l(1) =   1
                l(2) =   2
                l(3) =   2
     Q(r) pseudized with  8 coefficients,  rinner =    1.100   1.100   1.100
                                                       1.100   1.100

     atomic species   valence    mass     pseudopotential
        Au            11.00   196.96000     Au( 1.00)

      2 Sym. Ops. (no inversion) found



   Cartesian axes

     site n.     atom                  positions (alat units)
         1           Au  tau(   1) = (   0.0000000   0.0000000   0.0000000  )
         2           Au  tau(   2) = (   0.5000000   0.0000000   0.0000000  )
         3           Au  tau(   3) = (   0.0000000   0.8660254   0.0000000  )
         4           Au  tau(   4) = (   0.5000000   0.8660254   0.0000000  )
         5           Au  tau(   5) = (   0.2500000   0.1443376   0.4082483  )
         6           Au  tau(   6) = (   0.7500000   0.1443376   0.4082483  )
         7           Au  tau(   7) = (   0.2500000   1.0103631   0.4082483  )
         8           Au  tau(   8) = (   0.7500000   1.0103631   0.4082483  )
         9           Au  tau(   9) = (   0.5000000   0.5773503   0.4082483  )
        10           Au  tau(  10) = (   0.5000000   1.4433756   0.4082483  )
        11           Au  tau(  11) = (   1.0000000   0.5773503   0.4082483  )
        12           Au  tau(  12) = (   1.0000000   1.4433756   0.4082483  )
        13           Au  tau(  13) = (   0.5000000   0.2886751   0.8164966  )
        14           Au  tau(  14) = (   1.0000000   0.2886751   0.8164966  )
        15           Au  tau(  15) = (   0.2500000   0.7216878   0.8164966  )
        16           Au  tau(  16) = (   0.7500000   0.7216878   0.8164966  )
        17           Au  tau(  17) = (   0.5000000   1.1547005   0.8164966  )
        18           Au  tau(  18) = (   1.0000000   1.1547005   0.8164966  )
        19           Au  tau(  19) = (   0.2500000   1.5877132   0.8164966  )
        20           Au  tau(  20) = (   0.7500000   1.5877132   0.8164966  )
        21           Au  tau(  21) = (   0.0000000   0.0000000   1.2247449  )
        22           Au  tau(  22) = (   0.5000000   0.0000000   1.2247449  )
        23           Au  tau(  23) = (   0.2500000   0.4330127   1.2247449  )
        24           Au  tau(  24) = (   0.5000000   0.8660254   1.2247449  )
        25           Au  tau(  25) = (   0.2500000   1.2990381   1.2247449  )
        26           Au  tau(  26) = (   0.7500000   0.4330127   1.2247449  )
        27           Au  tau(  27) = (   0.7500000   1.2990381   1.2247449  )
        28           Au  tau(  28) = (   0.0000000   0.8660254   1.2247449  )
        29           Au  tau(  29) = (   0.2500000   1.0103631   1.6329932  )
        30           Au  tau(  30) = (   1.0000000   0.5773503   1.6329932  )
        31           Au  tau(  31) = (   0.2500000   0.1443376   1.6329932  )
        32           Au  tau(  32) = (   0.7500000   0.1443376   1.6329932  )
        33           Au  tau(  33) = (   0.7500000   1.0103631   1.6329932  )
        34           Au  tau(  34) = (   0.5000000   0.5773503   1.6329932  )
        35           Au  tau(  35) = (   0.5000000   1.4433756   1.6329932  )
        36           Au  tau(  36) = (   1.0000000   1.4433756   1.6329932  )
        37           Au  tau(  37) = (   0.5000000   0.2886751   2.0412415  )
        38           Au  tau(  38) = (   1.0000000   0.2886751   2.0412415  )
        39           Au  tau(  39) = (   0.2500000   0.7216878   2.0412415  )
        40           Au  tau(  40) = (   0.7500000   0.7216878   2.0412415  )
        41           Au  tau(  41) = (   0.7500000   1.5877132   2.0412415  )
        42           Au  tau(  42) = (   0.5000000   1.1547005   2.0412415  )
        43           Au  tau(  43) = (   1.0000000   1.1547005   2.0412415  )
        44           Au  tau(  44) = (   0.2500000   1.5877132   2.0412415  )
        45           Au  tau(  45) = (   0.0000000   0.0000000   2.4494897  )
        46           Au  tau(  46) = (   0.0000000   0.8660254   2.4494897  )
        47           Au  tau(  47) = (   0.5000000   0.0000000   2.4494897  )
        48           Au  tau(  48) = (   0.5000000   0.8660254   2.4494897  )
        49           Au  tau(  49) = (   0.2500000   0.4330127   2.4494897  )
        50           Au  tau(  50) = (   0.7500000   0.4330127   2.4494897  )
        51           Au  tau(  51) = (   0.2500000   1.2990381   2.4494897  )
        52           Au  tau(  52) = (   0.7500000   1.2990381   2.4494897  )
        53           Au  tau(  53) = (   1.0000000   1.4433756   2.8577380  )
        54           Au  tau(  54) = (   0.2500000   0.1443376   2.8577380  )
        55           Au  tau(  55) = (   0.2500000   1.0103631   2.8577380  )
        56           Au  tau(  56) = (   0.7500000   0.1443376   2.8577380  )
        57           Au  tau(  57) = (   0.7500000   1.0103631   2.8577380  )
        58           Au  tau(  58) = (   0.5000000   0.5773503   2.8577380  )
        59           Au  tau(  59) = (   0.5000000   1.4433756   2.8577380  )
        60           Au  tau(  60) = (   1.0000000   0.5773503   2.8577380  )
        61           Au  tau(  61) = (   0.7500000   1.5877132   3.2659863  )
        62           Au  tau(  62) = (   0.5000000   0.2886751   3.2659863  )
        63           Au  tau(  63) = (   0.5000000   1.1547005   3.2659863  )
        64           Au  tau(  64) = (   1.0000000   0.2886751   3.2659863  )
        65           Au  tau(  65) = (   1.0000000   1.1547005   3.2659863  )
        66           Au  tau(  66) = (   0.2500000   0.7216878   3.2659863  )
        67           Au  tau(  67) = (   0.2500000   1.5877132   3.2659863  )
        68           Au  tau(  68) = (   0.7500000   0.7216878   3.2659863  )
        69           Au  tau(  69) = (   0.2500000   0.4330127   3.6742346  )
        70           Au  tau(  70) = (   0.2500000   1.2990381   3.6742346  )
        71           Au  tau(  71) = (   0.7500000   0.4330127   3.6742346  )
        72           Au  tau(  72) = (   0.7500000   1.2990381   3.6742346  )

     number of k points=    18  Marzari-Vanderbilt smearing, width (Ry)=  0.0500
                       cart. coord. in units 2pi/alat
        k(    1) = (   0.0416667   0.0481125   0.0000000), wk =   0.1111111
        k(    2) = (   0.0416667   0.1443376   0.0000000), wk =   0.1111111
        k(    3) = (   0.0416667   0.2405626   0.0000000), wk =   0.1111111
        k(    4) = (   0.1250000   0.0481125   0.0000000), wk =   0.1111111
        k(    5) = (   0.1250000   0.1443376   0.0000000), wk =   0.1111111
        k(    6) = (   0.1250000   0.2405626   0.0000000), wk =   0.1111111
        k(    7) = (   0.2083333   0.0481125   0.0000000), wk =   0.1111111
        k(    8) = (   0.2083333   0.1443376   0.0000000), wk =   0.1111111
        k(    9) = (   0.2083333   0.2405626   0.0000000), wk =   0.1111111
        k(   10) = (   0.2916667   0.0481125   0.0000000), wk =   0.1111111
        k(   11) = (   0.2916667   0.1443376   0.0000000), wk =   0.1111111
        k(   12) = (   0.2916667   0.2405626   0.0000000), wk =   0.1111111
        k(   13) = (   0.3750000   0.0481125   0.0000000), wk =   0.1111111
        k(   14) = (   0.3750000   0.1443376   0.0000000), wk =   0.1111111
        k(   15) = (   0.3750000   0.2405626   0.0000000), wk =   0.1111111
        k(   16) = (   0.4583333   0.0481125   0.0000000), wk =   0.1111111
        k(   17) = (   0.4583333   0.1443376   0.0000000), wk =   0.1111111
        k(   18) = (   0.4583333   0.2405626   0.0000000), wk =   0.1111111

     Dense  grid:  1425285 G-vectors     FFT dimensions: (  72, 120, 360)

     Smooth grid:   440649 G-vectors     FFT dimensions: (  45,  80, 243)

     Estimated max dynamical RAM per process >     378.33 MB

     Estimated total dynamical RAM >      17.73 GB

     Initial potential from superposition of free atoms

     starting charge  791.16394, renormalised to  792.00000

     negative rho (up, down):  1.916E+00 0.000E+00
     Starting wfcs are  648 randomized atomic wfcs

     total cpu time spent up to now is       10.8 secs

     Self-consistent Calculation

     iteration #  1     ecut=    40.00 Ry     beta= 0.70
     Davidson diagonalization with overlap
     ethr =  1.00E-02,  avg # of iterations =  2.6

     Threshold (ethr) on eigenvalues was too large:
     Diagonalizing with lowered threshold

     Davidson diagonalization with overlap
     ethr =  3.34E-04,  avg # of iterations =  2.8

     negative rho (up, down):  1.820E+00 0.000E+00

     total cpu time spent up to now is       59.1 secs

     total energy              =   -7346.27244431 Ry
     estimated scf accuracy    <       3.14822591 Ry

     iteration #  2     ecut=    40.00 Ry     beta= 0.70
     Davidson diagonalization with overlap
     ethr =  3.98E-04,  avg # of iterations =  1.0

     negative rho (up, down):  1.926E+00 0.000E+00

     total cpu time spent up to now is       78.1 secs

     total energy              =   -7346.41230374 Ry
     estimated scf accuracy    <       1.40734920 Ry

     iteration #  3     ecut=    40.00 Ry     beta= 0.70
     Davidson diagonalization with overlap
     ethr =  1.78E-04,  avg # of iterations =  2.6

     negative rho (up, down):  2.029E+00 0.000E+00

     total cpu time spent up to now is      100.6 secs

     total energy              =   -7346.40389657 Ry
     estimated scf accuracy    <       0.82286057 Ry

     iteration #  4     ecut=    40.00 Ry     beta= 0.70
     Davidson diagonalization with overlap
     ethr =  1.04E-04,  avg # of iterations =  7.7

     negative rho (up, down):  2.026E+00 0.000E+00

     total cpu time spent up to now is      127.2 secs

     total energy              =   -7346.39074577 Ry
     estimated scf accuracy    <       0.40466910 Ry

     iteration #  5     ecut=    40.00 Ry     beta= 0.70
     Davidson diagonalization with overlap
     ethr =  5.11E-05,  avg # of iterations = 11.1

     negative rho (up, down):  1.974E+00 0.000E+00

     total cpu time spent up to now is      156.3 secs

     total energy              =   -7346.38489675 Ry
     estimated scf accuracy    <       0.24801267 Ry

     iteration #  6     ecut=    40.00 Ry     beta= 0.70
     Davidson diagonalization with overlap
     c_bands:  1 eigenvalues not converged
     ethr =  3.13E-05,  avg # of iterations =  8.7

     negative rho (up, down):  1.978E+00 0.000E+00

     total cpu time spent up to now is      183.0 secs

     total energy              =   -7346.37787690 Ry
     estimated scf accuracy    <       0.23635933 Ry

     iteration #  7     ecut=    40.00 Ry     beta= 0.70
     Davidson diagonalization with overlap
     ethr =  2.98E-05,  avg # of iterations =  3.6

     negative rho (up, down):  1.986E+00 0.000E+00

     total cpu time spent up to now is      205.2 secs

     total energy              =   -7346.36976441 Ry
     estimated scf accuracy    <       0.24113048 Ry

     iteration #  8     ecut=    40.00 Ry     beta= 0.70
     Davidson diagonalization with overlap
     ethr =  2.98E-05,  avg # of iterations =  3.8

     negative rho (up, down):  2.024E+00 0.000E+00

     total cpu time spent up to now is      227.6 secs

     total energy              =   -7346.35204178 Ry
     estimated scf accuracy    <       0.16608563 Ry

     iteration #  9     ecut=    40.00 Ry     beta= 0.70
     Davidson diagonalization with overlap
     ethr =  2.10E-05,  avg # of iterations = 12.2

     negative rho (up, down):  2.013E+00 0.000E+00

     total cpu time spent up to now is      264.3 secs

     total energy              =   -7346.37431182 Ry
     estimated scf accuracy    <       0.24653106 Ry

     iteration # 10     ecut=    40.00 Ry     beta= 0.70
     Davidson diagonalization with overlap
     ethr =  2.10E-05,  avg # of iterations =  1.0

     negative rho (up, down):  2.032E+00 0.000E+00

     total cpu time spent up to now is      282.5 secs

     total energy              =   -7346.36184821 Ry
     estimated scf accuracy    <       0.15643031 Ry

     iteration # 11     ecut=    40.00 Ry     beta= 0.70
     Davidson diagonalization with overlap
     ethr =  1.98E-05,  avg # of iterations =  1.0

     negative rho (up, down):  2.041E+00 0.000E+00

     total cpu time spent up to now is      300.6 secs

     total energy              =   -7346.37396512 Ry
     estimated scf accuracy    <       0.06936715 Ry

     iteration # 12     ecut=    40.00 Ry     beta= 0.70
     Davidson diagonalization with overlap
     ethr =  8.76E-06,  avg # of iterations =  2.0

     negative rho (up, down):  2.072E+00 0.000E+00

     total cpu time spent up to now is      321.4 secs

     total energy              =   -7346.35250434 Ry
     estimated scf accuracy    <       0.19590861 Ry

     iteration # 13     ecut=    40.00 Ry     beta= 0.70
     Davidson diagonalization with overlap
     ethr =  8.76E-06,  avg # of iterations = 10.0

     negative rho (up, down):  2.026E+00 0.000E+00

     total cpu time spent up to now is      351.1 secs

     total energy              =   -7346.35208695 Ry
     estimated scf accuracy    <       0.02006345 Ry

     iteration # 14     ecut=    40.00 Ry     beta= 0.70
     Davidson diagonalization with overlap
     ethr =  2.53E-06,  avg # of iterations = 10.8

     negative rho (up, down):  2.012E+00 0.000E+00

     total cpu time spent up to now is      396.6 secs

     total energy              =   -7346.35910361 Ry
     estimated scf accuracy    <       0.05069807 Ry

     iteration # 15     ecut=    40.00 Ry     beta= 0.70
     Davidson diagonalization with overlap
     ethr =  2.53E-06,  avg # of iterations =  2.1

     negative rho (up, down):  1.993E+00 0.000E+00

     total cpu time spent up to now is      417.7 secs

     total energy              =   -7346.35467751 Ry
     estimated scf accuracy    <       0.02626697 Ry

     iteration # 16     ecut=    40.00 Ry     beta= 0.70
     Davidson diagonalization with overlap
     c_bands:  1 eigenvalues not converged
     ethr =  2.53E-06,  avg # of iterations =  7.8

     negative rho (up, down):  1.972E+00 0.000E+00

     total cpu time spent up to now is      448.1 secs

     total energy              =   -7346.35666681 Ry
     estimated scf accuracy    <       0.00043497 Ry

     iteration # 17     ecut=    40.00 Ry     beta= 0.70
     Davidson diagonalization with overlap
     ethr =  5.49E-08,  avg # of iterations =  8.8

     negative rho (up, down):  1.960E+00 0.000E+00

     total cpu time spent up to now is      481.3 secs

     total energy              =   -7346.35653989 Ry
     estimated scf accuracy    <       0.00056149 Ry

     iteration # 18     ecut=    40.00 Ry     beta= 0.70
     Davidson diagonalization with overlap
     ethr =  5.49E-08,  avg # of iterations = 12.4

     negative rho (up, down):  1.958E+00 0.000E+00

     total cpu time spent up to now is      514.0 secs

     total energy              =   -7346.35663571 Ry
     estimated scf accuracy    <       0.00005951 Ry

     iteration # 19     ecut=    40.00 Ry     beta= 0.70
     Davidson diagonalization with overlap
     ethr =  7.51E-09,  avg # of iterations =  7.9

     negative rho (up, down):  1.957E+00 0.000E+00

     total cpu time spent up to now is      544.5 secs

     total energy              =   -7346.35668463 Ry
     estimated scf accuracy    <       0.00003670 Ry

     iteration # 20     ecut=    40.00 Ry     beta= 0.70
     Davidson diagonalization with overlap
     ethr =  4.63E-09,  avg # of iterations =  6.3

     negative rho (up, down):  1.957E+00 0.000E+00

     total cpu time spent up to now is      572.1 secs

     total energy              =   -7346.35669507 Ry
     estimated scf accuracy    <       0.00002501 Ry

     iteration # 21     ecut=    40.00 Ry     beta= 0.70
     Davidson diagonalization with overlap
     ethr =  3.16E-09,  avg # of iterations =  2.6

     negative rho (up, down):  1.957E+00 0.000E+00

     total cpu time spent up to now is      593.8 secs

     total energy              =   -7346.35669863 Ry
     estimated scf accuracy    <       0.00000106 Ry

     iteration # 22     ecut=    40.00 Ry     beta= 0.70
     Davidson diagonalization with overlap
     ethr =  1.34E-10,  avg # of iterations =  3.7

     negative rho (up, down):  1.957E+00 0.000E+00

     total cpu time spent up to now is      616.4 secs

     End of self-consistent calculation

          k = 0.0417 0.0481 0.0000 ( 55126 PWs)   bands (ev):

    -0.8130  -0.4714   0.0254   0.5491   0.6014   0.8361   0.9649   1.1251
     1.2159   1.2463   1.4434   1.5573   1.5648   1.5683   1.6035   1.6142
     1.6194   1.7228   1.8476   1.8505   1.8521   1.8545   1.8641   1.8682
     1.9218   2.0302   2.0336   2.0406   2.1220   2.1226   2.1254   2.1515
     2.1520   2.1635   2.1714   2.2257   2.2292   2.2381   2.2441   2.2806
     2.3147   2.3179   2.3229   2.3337   2.3502   2.3810   2.3915   2.4115
     2.4166   2.4301   2.4407   2.4759   2.4837   2.4887   2.4953   2.5151
     2.5245   2.5462   2.5801   2.6021   2.6233   2.6415   2.6672   2.6688
     2.6846   2.7237   2.7340   2.7590   2.7689   2.7906   2.8246   2.8573
     2.9325   2.9403   2.9612   2.9793   3.0561   3.0694   3.0814   3.0834
     3.1171   3.1479   3.1695   3.1760   3.1946   3.2139   3.2336   3.2614
     3.2910   3.3217   3.3245   3.3318   3.3439   3.3607   3.3694   3.3758
     3.4219   3.4495   3.4593   3.4757   3.4824   3.5090   3.5120   3.5479
     3.5628   3.5670   3.5868   3.6018   3.6075   3.6211   3.6468   3.6481
     3.6594   3.6846   3.6907   3.7320   3.7326   3.7656   3.7743   3.7789
     3.7920   3.7940   3.8014   3.8281   3.8525   3.8649   3.8696   3.8697
     3.8935   3.8952   3.9020   3.9072   3.9192   3.9260   3.9345   3.9388
     3.9495   3.9549   3.9552   3.9610   3.9635   3.9802   3.9877   3.9940
     4.0118   4.0261   4.0425   4.0731   4.0801   4.0867   4.0953   4.0992
     4.1079   4.1101   4.1177   4.1337   4.1399   4.1644   4.1654   4.1656
     4.1743   4.1754   4.1831   4.1889   4.1905   4.2007   4.2067   4.2185
     4.2377   4.2549   4.3003   4.3058   4.3145   4.3184   4.3218   4.3329
     4.3480   4.3578   4.3673   4.3704   4.3807   4.3828   4.3944   4.4297
     4.4314   4.4334   4.4525   4.4660   4.4686   4.4916   4.5097   4.5127
     4.5188   4.5250   4.5281   4.5335   4.5362   4.5973   4.6326   4.6591
     4.6926   4.6991   4.7084   4.7183   4.7252   4.7466   4.7514   4.7645
     4.7727   4.8137   4.8720   4.8810   4.8820   4.8919   4.8962   4.8990
     4.9028   4.9298   4.9596   4.9750   4.9810   4.9913   4.9990   5.0117
     5.0293   5.0306   5.0352   5.0605   5.0821   5.1087   5.1115   5.1243
     5.1280   5.1513   5.1540   5.1907   5.2013   5.2160   5.2235   5.2292
     5.2316   5.2362   5.2605   5.2614   5.2661   5.2703   5.2754   5.2829
     5.2962   5.3189   5.3270   5.3322   5.3343   5.3402   5.3472   5.3511
     5.3544   5.3752   5.4065   5.4199   5.4280   5.4315   5.4608   5.4792
     5.4887   5.4961   5.5163   5.5164   5.5399   5.5454   5.5510   5.5549
     5.5725   5.6062   5.6110   5.6412   5.6479   5.6786   5.6971   5.6999
     5.7302   5.7481   5.7566   5.7622   5.7906   5.8116   5.8306   5.8486
     5.8600   5.8654   5.8929   5.8973   5.9060   5.9253   5.9599   5.9770
     5.9780   5.9954   5.9964   6.0131   6.0741   6.0946   6.0977   6.1170
     6.1180   6.1337   6.1428   6.1658   6.1751   6.1794   6.1961   6.2013
     6.2067   6.2198   6.2314   6.2339   6.2346   6.2529   6.2597   6.2670
     6.2938   6.3036   6.3138   6.3278   6.3361   6.3459   6.3460   6.3476
     6.3608   6.3715   6.3761   6.3776   6.3787   6.3903   6.3922   6.3925
     6.3957   6.3979   6.3989   6.4285   6.4317   6.4324   6.4346   6.4385
     6.4516   6.4562   6.4651   6.4677   6.4864   6.5117   6.5125   6.5344
     6.5459   6.5485   6.5645   6.5713   6.5752   6.5874   6.5880   6.5958
     6.5991   6.6010   6.6085   6.6333   6.6383   6.6526   6.6704   6.6968
     6.6975   6.7192   6.7249   6.7566   6.7606   6.8338   6.8530   6.8763
     6.9125   6.9130   6.9557   7.0798   7.5266   7.6697   7.7395   7.7969
     7.7988   7.8520   8.0375   8.0476   8.1462   8.2408   8.2769   8.3595
     8.4533   8.4653   8.5506   8.5855   8.7137   8.7752   8.7832   8.7920
     8.9271   8.9468   8.9507   9.0403   9.0559   9.1042   9.1964   9.2727
     9.2776   9.2968   9.3530   9.4610   9.5884   9.6441   9.6611   9.7175
     9.7598   9.8306   9.9042   9.9108   9.9360   9.9942   9.9979  10.0743
    10.5294  10.6510  10.8569  10.8656  10.9821  11.0637  11.0766  11.1449
    11.2293  11.2591  11.2644  11.3281  11.3376  11.3824  11.4668  11.7283
    11.8212  11.8825  11.9530  12.0479  12.0588  12.0968  12.3380  12.3801
    12.4489  12.5511  12.6091  12.6161  12.6198  12.6451  12.7900  12.8467
    12.8748  13.2445  13.2843  13.3196  13.3836  13.4640  13.4915  13.6761
    13.6823  13.7254  13.8099  13.8227  13.8831  13.9533  13.9607  13.9952
    13.9961  14.0019  14.0079

          k = 0.0417 0.1443 0.0000 ( 55027 PWs)   bands (ev):

    -0.7122  -0.3722   0.1226   0.1366   0.4500   0.6973   0.9045   1.2201
     1.3072   1.4288   1.5338   1.5449   1.6052   1.6497   1.6504   1.6609
     1.6965   1.7918   1.8611   1.8864   1.8971   1.9034   1.9191   1.9250
     1.9443   2.0364   2.0572   2.0852   2.0992   2.1138   2.1519   2.1678
     2.1708   2.1737   2.1758   2.1996   2.2056   2.2132   2.2503   2.2572
     2.2768   2.2862   2.2876   2.2883   2.3122   2.3236   2.3384   2.3593
     2.3611   2.3624   2.4144   2.4227   2.4684   2.4860   2.4946   2.4996
     2.5087   2.5180   2.5195   2.5547   2.5682   2.5878   2.6429   2.6488
     2.6925   2.6953   2.7018   2.7021   2.7049   2.7113   2.7231   2.7432
     2.8035   2.8195   2.8704   2.8924   2.9246   3.0051   3.0104   3.0410
     3.0826   3.0888   3.1043   3.1302   3.1415   3.1626   3.2319   3.2376
     3.2487   3.2682   3.2915   3.3401   3.3499   3.3539   3.3743   3.4096
     3.4395   3.4519   3.4836   3.5018   3.5155   3.5241   3.5493   3.5560
     3.5842   3.5886   3.6150   3.6159   3.6199   3.6486   3.6778   3.6853
     3.6858   3.7019   3.7080   3.7495   3.7648   3.7669   3.7707   3.7863
     3.7914   3.8464   3.8506   3.8647   3.8922   3.9037   3.9095   3.9112
     3.9125   3.9278   3.9386   3.9443   3.9450   3.9479   3.9654   3.9763
     3.9775   3.9820   4.0006   4.0219   4.0219   4.0251   4.0560   4.0629
     4.0669   4.0735   4.0745   4.0849   4.1082   4.1157   4.1222   4.1396
     4.1462   4.1478   4.1738   4.1778   4.1811   4.1872   4.1913   4.1945
     4.1973   4.2187   4.2219   4.2237   4.2260   4.2318   4.2686   4.2715
     4.2826   4.3033   4.3078   4.3229   4.3271   4.3445   4.3490   4.3507
     4.3604   4.3783   4.3986   4.4044   4.4189   4.4232   4.4238   4.4320
     4.4575   4.4610   4.4623   4.4932   4.4934   4.5052   4.5335   4.5394
     4.5488   4.5568   4.5777   4.5801   4.5837   4.5905   4.5985   4.6125
     4.6307   4.6646   4.6704   4.6892   4.7063   4.7169   4.7477   4.7950
     4.8046   4.8208   4.8263   4.8332   4.8597   4.8663   4.8959   4.9184
     4.9265   4.9463   4.9467   4.9663   4.9751   4.9818   4.9849   4.9993
     5.0120   5.0272   5.0478   5.0520   5.0840   5.0935   5.0983   5.1167
     5.1295   5.1355   5.1718   5.1825   5.2015   5.2200   5.2385   5.2516
     5.2544   5.2573   5.2795   5.3213   5.3460   5.3468   5.3469   5.3596
     5.3709   5.3782   5.3928   5.3968   5.4099   5.4288   5.4371   5.4490
     5.4541   5.4707   5.4805   5.4941   5.4978   5.5078   5.5094   5.5266
     5.5379   5.5501   5.5535   5.5747   5.5793   5.5814   5.5886   5.6044
     5.6071   5.6129   5.6433   5.6510   5.6677   5.6711   5.7143   5.7283
     5.7294   5.7675   5.7740   5.7899   5.7914   5.7996   5.8345   5.8587
     5.8640   5.8779   5.8975   5.9034   5.9070   5.9139   5.9432   5.9480
     5.9721   5.9824   5.9841   6.0198   6.0236   6.0297   6.0378   6.0595
     6.1092   6.1183   6.1240   6.1253   6.1270   6.1466   6.1504   6.1563
     6.1592   6.1741   6.1937   6.2111   6.2145   6.2236   6.2277   6.2344
     6.2361   6.2503   6.2538   6.2715   6.2756   6.2757   6.2937   6.3004
     6.3009   6.3143   6.3143   6.3210   6.3223   6.3272   6.3342   6.3571
     6.3621   6.3662   6.3760   6.3838   6.3894   6.3906   6.3930   6.4002
     6.4264   6.4354   6.4492   6.4539   6.4582   6.4641   6.4653   6.4809
     6.4873   6.5049   6.5418   6.5431   6.5492   6.5641   6.5645   6.5678
     6.5869   6.5885   6.5973   6.5994   6.6023   6.6024   6.6267   6.6272
     6.7175   6.7185   6.7253   6.7446   6.7964   6.8301   6.8747   6.8775
     6.9108   6.9109   6.9660   7.1488   7.4629   7.4847   7.5676   7.6162
     7.6594   7.7838   7.7875   7.7930   7.9866   8.0369   8.0831   8.2064
     8.2356   8.2941   8.2998   8.4393   8.4791   8.5082   8.6561   8.6805
     8.7582   8.7940   8.9603   9.0337   9.0368   9.1524   9.1736   9.2183
     9.2660   9.4277   9.4830   9.7075   9.7081   9.7105   9.7677   9.7773
     9.9048   9.9556  10.0861  10.2303  10.3584  10.5418  10.6335  10.6516
    10.6522  10.6635  10.9775  11.0144  11.0274  11.1341  11.2091  11.2605
    11.3006  11.3340  11.3796  11.4415  11.5259  11.6091  11.6929  11.7723
    11.8429  11.8434  12.0151  12.0884  12.0926  12.0991  12.2303  12.2954
    12.4261  12.4475  12.5342  12.5529  12.5787  12.6668  12.7281  12.8324
    12.9247  12.9506  13.0058  13.1168  13.2776  13.3265  13.4002  13.4308
    13.4391  13.5587  13.6183  13.6328  13.6491  13.7156  13.7995  13.8985
    14.0116  14.0514  14.1038

          k = 0.0417 0.2406 0.0000 ( 55030 PWs)   bands (ev):

    -0.5140  -0.2263  -0.1779   0.1019   0.3117   0.5801   0.8821   1.1388
     1.4018   1.5057   1.5834   1.6432   1.7090   1.7516   1.7547   1.8039
     1.8167   1.8299   1.8555   1.9102   1.9392   1.9475   1.9730   1.9997
     2.0094   2.0104   2.0133   2.0284   2.0427   2.0657   2.0742   2.0844
     2.1271   2.1440   2.1466   2.1616   2.1688   2.1961   2.2339   2.2417
     2.2477   2.2733   2.2886   2.3027   2.3080   2.3382   2.3438   2.3701
     2.3807   2.3833   2.4080   2.4364   2.4395   2.4493   2.4515   2.4562
     2.4743   2.4766   2.5357   2.5379   2.5534   2.5680   2.5904   2.5944
     2.5986   2.6140   2.6169   2.6591   2.6637   2.6731   2.6932   2.7013
     2.7717   2.7725   2.7855   2.8061   2.8067   2.8490   2.8754   2.8758
     2.9229   2.9564   3.1221   3.1331   3.1400   3.1630   3.1811   3.1992
     3.2743   3.2793   3.3127   3.3277   3.3539   3.3778   3.3791   3.4049
     3.4213   3.5150   3.5319   3.5436   3.5537   3.5762   3.5856   3.5908
     3.5935   3.6246   3.6263   3.6297   3.6447   3.6923   3.6978   3.7043
     3.7201   3.7349   3.7437   3.7592   3.7594   3.7714   3.7852   3.7876
     3.8266   3.8466   3.8555   3.8571   3.8677   3.8681   3.9196   3.9234
     3.9409   3.9487   3.9529   3.9709   3.9757   3.9799   4.0153   4.0163
     4.0193   4.0418   4.0533   4.0579   4.0696   4.0709   4.0764   4.0789
     4.1021   4.1096   4.1197   4.1317   4.1393   4.1411   4.1499   4.1548
     4.1624   4.1694   4.1831   4.1870   4.1935   4.2003   4.2021   4.2050
     4.2182   4.2368   4.2543   4.2559   4.2739   4.2745   4.2886   4.2967
     4.3004   4.3061   4.3147   4.3224   4.3394   4.3505   4.3536   4.3688
     4.3691   4.3709   4.3815   4.3937   4.3996   4.4254   4.4666   4.4712
     4.4781   4.4854   4.4906   4.4955   4.4991   4.5050   4.5342   4.5355
     4.5360   4.5559   4.5744   4.5787   4.5863   4.6620   4.6804   4.6918
     4.7144   4.7189   4.7255   4.7307   4.7852   4.8013   4.8103   4.8150
     4.8176   4.8241   4.8260   4.8496   4.8595   4.8717   4.9010   4.9066
     4.9252   4.9585   4.9711   4.9819   5.0021   5.0065   5.0166   5.0248
     5.0341   5.0373   5.0844   5.0947   5.1094   5.1224   5.1292   5.1732
     5.1803   5.1999   5.2249   5.2311   5.2390   5.2409   5.2503   5.2591
     5.2740   5.2768   5.2858   5.2971   5.3265   5.3371   5.3443   5.3642
     5.3672   5.3731   5.3762   5.3767   5.3877   5.4028   5.4034   5.4091
     5.4729   5.4868   5.5333   5.5371   5.5425   5.5469   5.5777   5.5821
     5.5990   5.6075   5.6202   5.6320   5.6406   5.6680   5.6746   5.6966
     5.7079   5.7307   5.7311   5.7333   5.7483   5.7667   5.7697   5.7779
     5.8001   5.8288   5.8340   5.8373   5.8438   5.8538   5.8541   5.8570
     5.8574   5.9005   5.9034   5.9107   5.9489   5.9494   5.9587   5.9688
     5.9908   6.0095   6.0131   6.0141   6.0277   6.0360   6.0440   6.0477
     6.0536   6.0573   6.0718   6.0735   6.0765   6.0773   6.0907   6.0911
     6.1009   6.1245   6.1301   6.1450   6.1529   6.1685   6.1763   6.1841
     6.1928   6.1996   6.2057   6.2093   6.2257   6.2259   6.2353   6.2484
     6.2577   6.2635   6.2647   6.2657   6.2673   6.2730   6.2790   6.2826
     6.2912   6.2931   6.3071   6.3172   6.3338   6.3362   6.3497   6.3588
     6.3648   6.3701   6.3773   6.3777   6.4186   6.4243   6.4251   6.4424
     6.4453   6.4496   6.4742   6.5161   6.5466   6.5472   6.5483   6.5507
     6.5849   6.5856   6.5897   6.5922   6.5991   6.5996   6.6020   6.6042
     6.6626   6.7170   6.7249   6.7284   6.7397   6.8158   6.8258   6.8952
     6.8964   6.8973   6.9056   6.9063   6.9117   7.0666   7.4071   7.4967
     7.6142   7.6392   7.7172   7.8002   7.8509   7.8662   8.0289   8.0663
     8.1973   8.2647   8.3293   8.3614   8.4199   8.4214   8.5163   8.5960
     8.6836   8.8060   8.8539   9.0091   9.0219   9.1285   9.2262   9.2504
     9.3120   9.3897   9.7012   9.7303   9.7558   9.7803   9.7876   9.8687
    10.0744  10.2500  10.2529  10.4661  10.5446  10.5919  10.6435  10.7564
    10.7871  11.0497  11.1349  11.1945  11.2181  11.2267  11.2741  11.3419
    11.3897  11.4437  11.4824  11.6596  11.6621  11.7791  11.8062  11.8565
    11.9858  12.0116  12.1033  12.1127  12.1262  12.2556  12.3035  12.3200
    12.3471  12.4094  12.5246  12.5923  12.6220  12.6534  12.7047  12.7650
    12.8214  12.8497  12.9363  13.0723  13.0962  13.1679  13.2047  13.2840
    13.4464  13.4623  13.4632  13.5274  13.6556  13.6623  13.6884  13.8264
    13.8962  13.9584  14.1007

          k = 0.1250 0.0481 0.0000 ( 55079 PWs)   bands (ev):

    -0.7373  -0.3967   0.0988   0.6177   0.6743   0.9015   1.0347   1.1978
     1.2808   1.3081   1.5128   1.6011   1.6171   1.6296   1.6347   1.6503
     1.6767   1.7828   1.8489   1.8749   1.8935   1.8996   1.9017   1.9257
     1.9816   2.0478   2.0791   2.0923   2.1250   2.1390   2.1538   2.1632
     2.1651   2.2023   2.2211   2.2300   2.2414   2.2443   2.2810   2.2834
     2.2967   2.3110   2.3425   2.3516   2.3562   2.4042   2.4141   2.4361
     2.4403   2.4700   2.4724   2.4802   2.5225   2.5388   2.5418   2.5507
     2.5816   2.5907   2.6332   2.6409   2.6631   2.6764   2.6785   2.6937
     2.7239   2.7516   2.7859   2.7896   2.8260   2.8322   2.8637   2.9154
     2.9235   2.9482   2.9913   3.0343   3.0606   3.0731   3.0745   3.1140
     3.1539   3.1626   3.1772   3.1786   3.1959   3.2220   3.2576   3.2959
     3.2990   3.2993   3.3291   3.3324   3.3382   3.3596   3.3720   3.3884
     3.3901   3.4133   3.4375   3.4376   3.4693   3.4703   3.4854   3.5312
     3.5526   3.5592   3.5648   3.5678   3.6022   3.6090   3.6243   3.6291
     3.6441   3.6738   3.6970   3.7175   3.7214   3.7227   3.7296   3.7350
     3.7744   3.7776   3.8086   3.8155   3.8177   3.8414   3.8588   3.8598
     3.8754   3.8800   3.8835   3.8954   3.8983   3.9143   3.9332   3.9349
     3.9543   3.9557   3.9575   3.9661   3.9723   3.9765   3.9817   3.9838
     3.9896   4.0187   4.0324   4.0581   4.0634   4.0728   4.0746   4.0827
     4.0921   4.0989   4.1017   4.1097   4.1138   4.1379   4.1646   4.1683
     4.1781   4.1813   4.1844   4.1890   4.1915   4.1936   4.2004   4.2078
     4.2222   4.2287   4.2367   4.2462   4.2519   4.2926   4.3040   4.3122
     4.3211   4.3304   4.3596   4.3651   4.3673   4.3686   4.3838   4.3940
     4.4062   4.4134   4.4266   4.4377   4.4438   4.4619   4.4825   4.4979
     4.5010   4.5178   4.5230   4.5425   4.5429   4.5524   4.5695   4.6477
     4.6507   4.6738   4.6754   4.7123   4.7463   4.7706   4.7717   4.8045
     4.8269   4.8436   4.8544   4.8742   4.8807   4.8936   4.9179   4.9190
     4.9328   4.9342   4.9400   4.9459   4.9471   4.9516   4.9816   5.0067
     5.0113   5.0163   5.0433   5.0630   5.0667   5.0928   5.1000   5.1214
     5.1344   5.1391   5.1395   5.1515   5.1546   5.1929   5.2108   5.2259
     5.2272   5.2330   5.2499   5.2587   5.2602   5.2669   5.2863   5.3120
     5.3122   5.3245   5.3272   5.3356   5.3413   5.3536   5.3620   5.3641
     5.3691   5.4010   5.4061   5.4322   5.4525   5.4706   5.4779   5.5009
     5.5062   5.5086   5.5254   5.5507   5.5691   5.5724   5.5734   5.5809
     5.5983   5.5986   5.6382   5.6418   5.6502   5.6608   5.6851   5.6916
     5.7034   5.7296   5.7564   5.7598   5.7779   5.7906   5.7991   5.8006
     5.8397   5.8471   5.8643   5.8695   5.8737   5.8804   5.9236   5.9370
     5.9530   5.9699   6.0302   6.0320   6.0449   6.0553   6.0759   6.0792
     6.0888   6.0963   6.0985   6.1211   6.1314   6.1336   6.1564   6.1652
     6.1830   6.1832   6.2068   6.2207   6.2228   6.2245   6.2347   6.2378
     6.2487   6.2580   6.2689   6.2773   6.2824   6.2867   6.2920   6.2954
     6.3086   6.3121   6.3148   6.3268   6.3366   6.3451   6.3465   6.3499
     6.3560   6.3641   6.3675   6.3732   6.3753   6.3819   6.3937   6.3950
     6.4011   6.4100   6.4198   6.4471   6.4471   6.4794   6.4811   6.4822
     6.4834   6.5082   6.5084   6.5285   6.5349   6.5378   6.5397   6.5452
     6.5462   6.5507   6.5768   6.5943   6.6053   6.6249   6.6538   6.6559
     6.6613   6.6686   6.6790   6.7014   6.7483   6.7857   6.7883   6.8422
     6.8439   6.9537   7.0460   7.1244   7.1993   7.2038   7.3952   7.3982
     7.5526   7.6291   7.7219   7.7926   7.8826   7.9081   8.1020   8.1389
     8.1863   8.1908   8.2657   8.4424   8.5427   8.5573   8.7580   8.8448
     8.8610   8.9423   8.9856   9.0161   9.0976   9.1029   9.1662   9.1957
     9.3704   9.4416   9.4738   9.5981   9.7590   9.8113   9.8566   9.9074
    10.0290  10.0777  10.1009  10.1405  10.1418  10.3274  10.5029  10.5045
    10.7767  10.7969  10.9417  11.0387  11.0895  11.1635  11.2337  11.2416
    11.3477  11.3506  11.3927  11.4102  11.4692  11.5351  11.5749  11.7030
    11.9238  11.9535  11.9607  12.0718  12.0839  12.1052  12.1417  12.1802
    12.4427  12.4881  12.5526  12.6182  12.7004  12.7425  12.8207  12.8460
    12.9774  13.0318  13.2617  13.3354  13.4285  13.5815  13.5984  13.6310
    13.7219  13.7982  13.8115  13.9578  14.0056  14.0503  14.0614  14.0628
    14.1657  14.2983  14.4256

          k = 0.1250 0.1443 0.0000 ( 55061 PWs)   bands (ev):

    -0.6373  -0.2985   0.1947   0.2061   0.5169   0.7686   0.9682   1.2912
     1.3785   1.4916   1.6013   1.6106   1.6116   1.6682   1.7138   1.7256
     1.7566   1.8527   1.8593   1.9155   1.9238   1.9384   1.9571   1.9643
     1.9895   2.0033   2.0801   2.0953   2.1160   2.1472   2.1646   2.1685
     2.1980   2.2064   2.2214   2.2216   2.2393   2.2607   2.2716   2.2761
     2.3134   2.3211   2.3217   2.3234   2.3504   2.3770   2.3858   2.3882
     2.3929   2.3944   2.3983   2.4786   2.4793   2.4842   2.5096   2.5327
     2.5414   2.5526   2.5644   2.5866   2.6065   2.6154   2.6238   2.6828
     2.7089   2.7138   2.7269   2.7373   2.7617   2.7671   2.7712   2.7844
     2.8146   2.8642   2.8738   2.9332   2.9685   3.0243   3.0289   3.0909
     3.0984   3.1023   3.1242   3.1366   3.1502   3.1932   3.2459   3.2607
     3.2698   3.2986   3.2994   3.3420   3.3488   3.3814   3.4093   3.4148
     3.4221   3.4548   3.4607   3.4687   3.4798   3.4951   3.5254   3.5368
     3.5491   3.5527   3.5876   3.5905   3.6266   3.6389   3.6478   3.6632
     3.6771   3.6909   3.7235   3.7344   3.7373   3.7508   3.7993   3.8050
     3.8126   3.8245   3.8342   3.8366   3.8486   3.8727   3.8776   3.8914
     3.8965   3.9143   3.9164   3.9178   3.9223   3.9321   3.9485   3.9661
     3.9812   3.9919   3.9946   4.0118   4.0284   4.0292   4.0407   4.0426
     4.0445   4.0456   4.0591   4.0713   4.0816   4.1073   4.1098   4.1215
     4.1222   4.1503   4.1511   4.1611   4.1660   4.1691   4.1912   4.1933
     4.2028   4.2083   4.2119   4.2130   4.2283   4.2431   4.2484   4.2541
     4.2783   4.2838   4.2912   4.2994   4.3003   4.3217   4.3358   4.3456
     4.3468   4.3762   4.3768   4.3829   4.3852   4.4077   4.4101   4.4246
     4.4415   4.4465   4.4613   4.4695   4.5055   4.5159   4.5325   4.5452
     4.5523   4.5548   4.5565   4.5660   4.5809   4.5834   4.5966   4.6097
     4.6251   4.6417   4.6447   4.6706   4.6963   4.7051   4.7697   4.7798
     4.7989   4.8031   4.8191   4.8441   4.8508   4.8763   4.8796   4.8860
     4.9073   4.9075   4.9117   4.9255   4.9482   4.9550   4.9713   4.9714
     4.9753   4.9783   5.0302   5.0439   5.0698   5.0732   5.0771   5.0933
     5.1008   5.1179   5.1602   5.1610   5.1930   5.2102   5.2147   5.2368
     5.2450   5.2517   5.2812   5.2904   5.2968   5.3093   5.3285   5.3343
     5.3455   5.3613   5.3644   5.3699   5.3754   5.3878   5.3881   5.4065
     5.4296   5.4447   5.4531   5.4628   5.4636   5.4854   5.4913   5.4945
     5.4973   5.5316   5.5372   5.5372   5.5490   5.5739   5.5755   5.5950
     5.6159   5.6419   5.6433   5.6438   5.6786   5.6862   5.7086   5.7090
     5.7302   5.7419   5.7493   5.7688   5.7918   5.8193   5.8262   5.8406
     5.8545   5.8625   5.8959   5.9022   5.9136   5.9146   5.9401   5.9579
     5.9704   5.9796   6.0109   6.0272   6.0295   6.0558   6.0636   6.0662
     6.0719   6.0870   6.0907   6.1051   6.1143   6.1197   6.1340   6.1520
     6.1548   6.1609   6.1739   6.1890   6.1950   6.1991   6.2015   6.2024
     6.2082   6.2180   6.2200   6.2287   6.2425   6.2475   6.2497   6.2575
     6.2586   6.2647   6.2685   6.2731   6.2878   6.2885   6.2958   6.3144
     6.3293   6.3390   6.3471   6.3473   6.3548   6.3587   6.3709   6.3753
     6.3801   6.3881   6.3900   6.3968   6.4011   6.4316   6.4547   6.4667
     6.4733   6.4738   6.4738   6.4820   6.5068   6.5313   6.5369   6.5382
     6.5406   6.5450   6.5462   6.5510   6.5595   6.5800   6.5877   6.6144
     6.6570   6.6677   6.6835   6.7147   6.7911   6.7985   6.8403   6.8409
     6.9104   6.9558   6.9641   7.0723   7.0947   7.1914   7.2982   7.3758
     7.4280   7.4842   7.5299   7.6598   7.7033   7.7551   7.7588   7.8872
     7.9648   8.2564   8.2718   8.3175   8.3489   8.5145   8.7451   8.8106
     8.9662   8.9803   9.0036   9.0600   9.1493   9.2327   9.2551   9.2602
     9.3437   9.5721   9.6171   9.6502   9.7777   9.7893   9.8020   9.8867
     9.9662  10.1476  10.2436  10.3086  10.3247  10.5116  10.7338  10.7664
    10.7993  10.8090  11.0014  11.0534  11.1194  11.2009  11.2893  11.3367
    11.3811  11.4398  11.5396  11.5533  11.6097  11.6595  11.6727  11.7684
    11.8383  11.8470  11.9862  12.0658  12.1285  12.1630  12.2721  12.2965
    12.3098  12.4713  12.4879  12.5138  12.7128  12.8816  12.8906  12.9857
    13.0018  13.0879  13.2908  13.4132  13.4960  13.5276  13.5797  13.6138
    13.6148  13.6343  13.6819  13.8496  13.9059  14.0027  14.0575  14.1046
    14.1650  14.2006  14.2341

          k = 0.1250 0.2406 0.0000 ( 55022 PWs)   bands (ev):

    -0.4406  -0.1549  -0.1061   0.1713   0.3815   0.6469   0.9505   1.2038
     1.4699   1.5749   1.6490   1.6799   1.7086   1.7732   1.7997   1.8191
     1.8668   1.8782   1.9138   1.9188   1.9254   2.0013   2.0014   2.0128
     2.0349   2.0356   2.0688   2.0731   2.1039   2.1109   2.1238   2.1458
     2.1481   2.1537   2.1707   2.1912   2.1930   2.2156   2.2287   2.2860
     2.2883   2.2889   2.2920   2.3278   2.3413   2.3456   2.3624   2.3730
     2.3888   2.4177   2.4277   2.4338   2.4591   2.4733   2.4815   2.5060
     2.5109   2.5377   2.5472   2.5896   2.5897   2.5972   2.6015   2.6478
     2.6484   2.6627   2.6632   2.6756   2.7098   2.7333   2.7506   2.7531
     2.7623   2.7934   2.8118   2.8312   2.8660   2.8786   2.8937   2.9005
     2.9845   3.0230   3.1230   3.1447   3.1693   3.1760   3.2072   3.2238
     3.2934   3.3060   3.3244   3.3294   3.3597   3.3858   3.3859   3.4116
     3.4472   3.4623   3.4782   3.5041   3.5240   3.5341   3.5613   3.5625
     3.5890   3.5923   3.5982   3.6085   3.6496   3.6545   3.6588   3.7059
     3.7154   3.7246   3.7369   3.7467   3.7592   3.7661   3.7956   3.8029
     3.8271   3.8287   3.8380   3.8390   3.8569   3.8701   3.8922   3.8999
     3.9185   3.9343   3.9449   3.9627   3.9806   3.9832   3.9978   4.0098
     4.0103   4.0302   4.0306   4.0358   4.0640   4.0663   4.0780   4.0811
     4.0963   4.1009   4.1053   4.1108   4.1300   4.1321   4.1375   4.1501
     4.1529   4.1692   4.1826   4.1985   4.2054   4.2084   4.2085   4.2285
     4.2299   4.2345   4.2504   4.2667   4.2697   4.2918   4.2934   4.2938
     4.2994   4.3025   4.3216   4.3228   4.3296   4.3330   4.3541   4.3572
     4.3622   4.3763   4.3878   4.3934   4.3964   4.4039   4.4320   4.4339
     4.4594   4.4648   4.4953   4.5038   4.5241   4.5337   4.5408   4.5422
     4.5556   4.5560   4.5829   4.6097   4.6190   4.6271   4.6622   4.6655
     4.6926   4.7013   4.7084   4.7145   4.7244   4.7275   4.7483   4.7638
     4.7675   4.7862   4.7893   4.7960   4.8184   4.8403   4.8488   4.9105
     4.9330   4.9424   4.9569   4.9628   4.9677   4.9680   5.0071   5.0132
     5.0188   5.0346   5.0592   5.0699   5.0713   5.0772   5.0941   5.1000
     5.1253   5.1290   5.1432   5.1484   5.1551   5.1831   5.1842   5.1945
     5.2264   5.2300   5.2608   5.2721   5.2808   5.2972   5.3215   5.3279
     5.3348   5.3479   5.3562   5.3609   5.3719   5.4002   5.4067   5.4192
     5.4376   5.4563   5.4637   5.4969   5.4986   5.5194   5.5267   5.5333
     5.5431   5.5434   5.5796   5.5870   5.5939   5.6077   5.6222   5.6302
     5.6355   5.6755   5.6793   5.6938   5.6973   5.7011   5.7257   5.7412
     5.7562   5.7628   5.7679   5.7925   5.7961   5.8067   5.8184   5.8261
     5.8728   5.8763   5.9010   5.9079   5.9080   5.9376   5.9524   5.9542
     5.9552   5.9586   5.9700   5.9804   5.9884   6.0003   6.0126   6.0186
     6.0288   6.0316   6.0321   6.0629   6.0723   6.0883   6.1030   6.1038
     6.1205   6.1213   6.1345   6.1471   6.1471   6.1479   6.1559   6.1643
     6.1672   6.1746   6.1800   6.1840   6.1869   6.2100   6.2189   6.2200
     6.2324   6.2325   6.2426   6.2478   6.2557   6.2597   6.2773   6.2810
     6.2888   6.2921   6.3209   6.3260   6.3378   6.3423   6.3576   6.3808
     6.3855   6.3877   6.3910   6.4199   6.4233   6.4345   6.4421   6.4528
     6.4811   6.4812   6.4921   6.5104   6.5114   6.5151   6.5187   6.5317
     6.5398   6.5405   6.5491   6.5496   6.5572   6.5638   6.5811   6.6149
     6.6646   6.6674   6.7074   6.7673   6.8183   6.8230   6.8330   6.8355
     6.8425   6.9227   6.9711   7.0299   7.0385   7.0593   7.1255   7.1762
     7.1870   7.2757   7.3456   7.3470   7.5599   7.5887   7.6639   7.6745
     7.8643   8.0189   8.2465   8.2604   8.3482   8.3645   8.8022   9.0042
     9.0300   9.0949   9.1234   9.2665   9.3012   9.3082   9.4092   9.4698
     9.4730   9.6380   9.6381   9.7734   9.7988   9.8461   9.8570   9.9280
    10.0796  10.1338  10.2083  10.3040  10.3669  10.3902  10.5122  10.5469
    10.5824  10.7551  10.8615  10.8782  11.0970  11.1786  11.2673  11.2952
    11.3707  11.5076  11.6901  11.7291  11.7681  11.9385  12.0032  12.0777
    12.1099  12.1583  12.2227  12.2483  12.2801  12.3201  12.3315  12.4731
    12.4819  12.5627  12.7156  12.7314  12.8586  12.8737  13.0057  13.0133
    13.0743  13.1340  13.2139  13.2621  13.2668  13.3371  13.3807  13.5364
    13.5406  13.5623  13.6858  13.7468  13.8519  13.8813  13.9067  14.0049
    14.1491  14.1992  14.2615

          k = 0.2083 0.0481 0.0000 ( 55067 PWs)   bands (ev):

    -0.5876  -0.2497   0.2427   0.7500   0.8163   1.0259   1.1687   1.3393
     1.4023   1.4232   1.6065   1.6470   1.6936   1.7254   1.7555   1.7631
     1.7975   1.8382   1.8536   1.8897   1.9310   1.9417   1.9645   1.9729
     1.9922   2.0434   2.0854   2.0885   2.1378   2.1386   2.1458   2.1985
     2.2166   2.2307   2.2415   2.2512   2.2892   2.3433   2.3436   2.3477
     2.3553   2.4009   2.4162   2.4223   2.4283   2.4306   2.4890   2.4985
     2.5322   2.5393   2.5682   2.5825   2.5923   2.6072   2.6191   2.6600
     2.6792   2.7040   2.7048   2.7086   2.7164   2.7551   2.7572   2.7675
     2.7827   2.7854   2.8080   2.8790   2.8832   2.9153   2.9312   2.9433
     2.9595   2.9869   3.0502   3.0697   3.0934   3.1029   3.1074   3.1521
     3.1564   3.1760   3.1812   3.1869   3.1940   3.2303   3.2476   3.2799
     3.2931   3.2946   3.3106   3.3115   3.3159   3.3305   3.3374   3.3516
     3.3737   3.4119   3.4161   3.4310   3.4488   3.4648   3.4695   3.4766
     3.4910   3.4919   3.5189   3.5396   3.5547   3.5577   3.5791   3.6007
     3.6148   3.6470   3.6488   3.6568   3.6664   3.6681   3.6800   3.6854
     3.7574   3.7581   3.7858   3.7885   3.7902   3.8182   3.8404   3.8485
     3.8516   3.8586   3.8604   3.8663   3.8918   3.8928   3.8981   3.9278
     3.9447   3.9538   3.9568   3.9642   3.9690   3.9692   3.9699   3.9962
     3.9985   4.0048   4.0121   4.0286   4.0297   4.0463   4.0476   4.0501
     4.0587   4.0632   4.0753   4.1146   4.1247   4.1369   4.1392   4.1419
     4.1497   4.1502   4.1614   4.1702   4.1722   4.1758   4.1831   4.1909
     4.2007   4.2146   4.2264   4.2486   4.2536   4.2594   4.2612   4.2634
     4.2693   4.2949   4.2950   4.3093   4.3241   4.3761   4.3852   4.3899
     4.4032   4.4080   4.4102   4.4216   4.4414   4.4615   4.4711   4.4815
     4.4940   4.5045   4.5297   4.5304   4.5499   4.5552   4.5662   4.5980
     4.6150   4.6166   4.6622   4.7194   4.7271   4.7580   4.7699   4.7721
     4.8218   4.8304   4.8354   4.8474   4.8532   4.8557   4.8766   4.8890
     4.9083   4.9103   4.9117   4.9236   4.9406   4.9466   4.9552   4.9775
     4.9898   5.0122   5.0316   5.0457   5.0543   5.0719   5.0844   5.0852
     5.0945   5.1315   5.1428   5.1877   5.1884   5.1885   5.1887   5.2127
     5.2190   5.2230   5.2293   5.2445   5.2592   5.2678   5.2688   5.2771
     5.2797   5.3154   5.3250   5.3351   5.3522   5.3590   5.3752   5.3821
     5.3883   5.3932   5.3937   5.4188   5.4294   5.4615   5.4624   5.4683
     5.4784   5.5075   5.5136   5.5265   5.5391   5.5471   5.5519   5.5564
     5.5629   5.5941   5.5964   5.6261   5.6286   5.6530   5.6632   5.6822
     5.6870   5.7289   5.7400   5.7504   5.7671   5.7944   5.7961   5.8124
     5.8127   5.8175   5.8328   5.8597   5.8615   5.8775   5.9059   5.9143
     5.9377   5.9453   5.9624   5.9746   5.9895   5.9984   6.0241   6.0403
     6.0561   6.0636   6.0644   6.0697   6.0910   6.0981   6.1079   6.1093
     6.1109   6.1270   6.1361   6.1461   6.1471   6.1586   6.1602   6.1638
     6.1641   6.1799   6.1801   6.1899   6.1920   6.2091   6.2250   6.2325
     6.2354   6.2355   6.2405   6.2418   6.2544   6.2636   6.2721   6.2763
     6.2770   6.2770   6.2855   6.2858   6.2896   6.2963   6.3091   6.3132
     6.3261   6.3472   6.3516   6.3628   6.3792   6.3852   6.3913   6.4205
     6.4225   6.4351   6.4380   6.4409   6.4451   6.4516   6.4543   6.4688
     6.4964   6.5030   6.5070   6.5573   6.5626   6.5720   6.5773   6.5936
     6.6187   6.6396   6.6574   6.6613   6.6679   6.6762   6.6851   6.6940
     6.7147   6.7162   6.7981   6.8758   6.9864   7.0633   7.0977   7.1043
     7.2569   7.2668   7.4133   7.5111   7.5949   7.6024   7.7091   7.7918
     7.9024   7.9882   8.0955   8.2152   8.2775   8.3051   8.5497   8.7358
     8.8265   8.9293   9.0116   9.0722   9.0887   9.1527   9.3479   9.4147
     9.6530   9.6602   9.7168   9.7775   9.8380   9.8853   9.9722  10.0376
    10.0482  10.2263  10.2620  10.4360  10.4454  10.5774  10.6216  10.9048
    11.0044  11.0660  11.1808  11.2101  11.2913  11.3185  11.3680  11.4649
    11.5089  11.5141  11.5186  11.5921  11.6760  11.7286  11.7800  11.8405
    11.9627  12.0043  12.0149  12.0997  12.1630  12.3035  12.3516  12.3762
    12.5154  12.5740  12.6338  12.7545  12.8513  12.9213  12.9659  13.0674
    13.2234  13.4246  13.4744  13.5130  13.5703  13.6160  13.7457  13.7557
    13.7672  13.8019  13.8407  14.0122  14.1040  14.1307  14.1545  14.1900
    14.2949  14.3922  14.5337

          k = 0.2083 0.1443 0.0000 ( 55049 PWs)   bands (ev):

    -0.4895  -0.1537   0.3357   0.3411   0.6459   0.9069   1.0889   1.4282
     1.5162   1.5722   1.6071   1.7305   1.7332   1.7476   1.7897   1.8178
     1.8301   1.8358   1.8508   1.9448   1.9504   1.9604   2.0293   2.0368
     2.0431   2.0714   2.0770   2.1040   2.1151   2.1316   2.1956   2.2214
     2.2402   2.2548   2.2721   2.2912   2.2933   2.3039   2.3508   2.3572
     2.3714   2.3867   2.3922   2.4374   2.4379   2.4432   2.4561   2.4619
     2.4652   2.4712   2.4841   2.4882   2.5105   2.5701   2.5775   2.5876
     2.5889   2.6115   2.6369   2.6880   2.6881   2.7007   2.7051   2.7074
     2.7507   2.7846   2.7883   2.7937   2.8160   2.8261   2.8355   2.8616
     2.8765   2.9014   2.9877   2.9982   3.0068   3.0534   3.0790   3.1067
     3.1082   3.1252   3.1700   3.1793   3.1812   3.1956   3.2440   3.2607
     3.2730   3.3153   3.3236   3.3392   3.3703   3.3871   3.3900   3.4220
     3.4275   3.4378   3.4384   3.4497   3.4609   3.4899   3.4901   3.4949
     3.5051   3.5387   3.5630   3.5668   3.5836   3.5911   3.6178   3.6259
     3.6491   3.6889   3.6929   3.7070   3.7237   3.7276   3.7312   3.7373
     3.7493   3.7595   3.8015   3.8057   3.8132   3.8389   3.8413   3.8595
     3.8767   3.8801   3.8831   3.8987   3.9149   3.9213   3.9234   3.9396
     3.9495   3.9560   3.9667   3.9785   3.9907   3.9984   4.0171   4.0243
     4.0263   4.0274   4.0382   4.0680   4.0734   4.0766   4.0781   4.1155
     4.1163   4.1334   4.1448   4.1597   4.1679   4.1794   4.1829   4.1890
     4.2000   4.2092   4.2098   4.2232   4.2265   4.2399   4.2412   4.2495
     4.2594   4.2870   4.2891   4.3069   4.3071   4.3125   4.3151   4.3250
     4.3392   4.3455   4.3481   4.3526   4.3603   4.3605   4.3721   4.3826
     4.4133   4.4162   4.4575   4.4810   4.4829   4.4867   4.4891   4.5157
     4.5209   4.5238   4.5397   4.5411   4.5442   4.5652   4.5824   4.5835
     4.5969   4.6383   4.6417   4.6595   4.6824   4.7014   4.7478   4.7533
     4.7586   4.7636   4.7902   4.8230   4.8289   4.8362   4.8425   4.8457
     4.8582   4.8766   4.9193   4.9278   4.9330   4.9425   4.9527   4.9564
     4.9753   4.9811   4.9945   5.0152   5.0260   5.0287   5.0593   5.0808
     5.1062   5.1088   5.1347   5.1543   5.1555   5.1652   5.1767   5.1769
     5.1927   5.1964   5.1964   5.2143   5.2198   5.2272   5.2398   5.2583
     5.2971   5.3036   5.3064   5.3090   5.3368   5.3414   5.3470   5.3535
     5.3611   5.3813   5.3901   5.3969   5.4363   5.4523   5.4539   5.4716
     5.4786   5.4921   5.4942   5.5232   5.5271   5.5343   5.5448   5.5526
     5.5724   5.5768   5.6117   5.6201   5.6210   5.6413   5.6434   5.6563
     5.6726   5.6827   5.7298   5.7534   5.7753   5.8015   5.8169   5.8220
     5.8479   5.8596   5.8669   5.8840   5.9184   5.9232   5.9374   5.9441
     5.9497   5.9625   5.9701   5.9861   5.9949   6.0085   6.0154   6.0165
     6.0293   6.0391   6.0421   6.0518   6.0609   6.0682   6.0728   6.0950
     6.0954   6.1002   6.1194   6.1252   6.1341   6.1423   6.1467   6.1597
     6.1620   6.1687   6.1719   6.1737   6.1867   6.1936   6.2004   6.2113
     6.2192   6.2240   6.2257   6.2359   6.2482   6.2592   6.2648   6.2707
     6.2716   6.2723   6.2783   6.3098   6.3124   6.3180   6.3221   6.3400
     6.3509   6.3512   6.3662   6.3729   6.3839   6.3869   6.3899   6.4027
     6.4138   6.4165   6.4314   6.4320   6.4407   6.4434   6.4467   6.4525
     6.4760   6.4830   6.4960   6.5009   6.5091   6.5481   6.5581   6.5940
     6.6018   6.6098   6.6148   6.6632   6.6741   6.6775   6.6832   6.7114
     6.7152   6.7186   6.7232   6.7550   6.8586   6.8593   6.9700   7.0817
     7.1301   7.2085   7.2890   7.5873   7.6103   7.7384   7.7915   7.9544
     8.0387   8.0672   8.1678   8.2635   8.3152   8.3634   8.3997   8.4577
     8.6850   8.7157   8.9062   8.9642   9.0906   9.2937   9.3241   9.4099
     9.4723   9.7441   9.7508   9.8463   9.8478   9.9372  10.0409  10.1394
    10.2085  10.3989  10.4852  10.4982  10.5358  10.5950  10.7892  10.7903
    10.9617  10.9864  11.0081  11.0411  11.0646  11.1418  11.2130  11.3908
    11.4138  11.4747  11.6671  11.6774  11.7686  11.7863  11.8455  11.8818
    11.9906  12.1724  12.2140  12.2571  12.3004  12.4105  12.4302  12.4399
    12.6151  12.6159  12.6410  12.9277  12.9986  13.0108  13.1153  13.1585
    13.1746  13.4025  13.5266  13.5765  13.5949  13.6175  13.6317  13.7330
    13.7714  13.9137  13.9241  14.1859  14.2077  14.2856  14.2857  14.2946
    14.2970  14.4466  14.4931

          k = 0.2083 0.2406 0.0000 ( 54996 PWs)   bands (ev):

    -0.2964  -0.0153   0.0344   0.3062   0.5170   0.7752   1.0819   1.3264
     1.5898   1.5992   1.6532   1.7080   1.7752   1.8300   1.8309   1.8821
     1.8925   1.9454   1.9847   1.9972   2.0088   2.0217   2.0382   2.0862
     2.0945   2.0982   2.1129   2.1325   2.1387   2.1595   2.1782   2.1824
     2.2187   2.2189   2.2313   2.2429   2.2449   2.2590   2.3037   2.3194
     2.3318   2.3375   2.3558   2.3699   2.3709   2.4262   2.4393   2.4482
     2.4676   2.4700   2.4758   2.5038   2.5196   2.5290   2.5473   2.5602
     2.5778   2.5927   2.6338   2.6432   2.6453   2.6574   2.6895   2.7049
     2.7104   2.7328   2.7541   2.7748   2.7848   2.7927   2.8135   2.8173
     2.8492   2.8588   2.8851   2.8934   2.9119   2.9371   2.9591   2.9840
     3.0680   3.1049   3.1392   3.1620   3.1923   3.2153   3.2253   3.2885
     3.2906   3.3107   3.3116   3.3179   3.3498   3.3550   3.3840   3.4263
     3.4329   3.4412   3.4638   3.4825   3.5067   3.5071   3.5134   3.5365
     3.5511   3.5736   3.5747   3.5851   3.5921   3.6105   3.6518   3.6645
     3.6649   3.6706   3.6857   3.7031   3.7540   3.7572   3.7579   3.7726
     3.7959   3.8099   3.8139   3.8366   3.8529   3.8613   3.8868   3.9017
     3.9079   3.9101   3.9155   3.9261   3.9368   3.9376   3.9548   3.9723
     4.0155   4.0159   4.0235   4.0255   4.0270   4.0464   4.0551   4.0639
     4.0786   4.0828   4.0922   4.1072   4.1175   4.1385   4.1446   4.1556
     4.1594   4.1815   4.1874   4.1998   4.2014   4.2161   4.2208   4.2247
     4.2362   4.2404   4.2451   4.2575   4.2646   4.2647   4.2692   4.2793
     4.2895   4.2940   4.3100   4.3112   4.3176   4.3241   4.3351   4.3437
     4.3810   4.3900   4.3908   4.4115   4.4131   4.4228   4.4285   4.4387
     4.4442   4.4654   4.4751   4.4814   4.4815   4.5152   4.5482   4.5767
     4.5777   4.5788   4.5827   4.5903   4.5914   4.6012   4.6122   4.6307
     4.6541   4.6544   4.6566   4.6663   4.6745   4.6793   4.6990   4.7091
     4.7210   4.7319   4.7555   4.7612   4.8104   4.8105   4.8122   4.8238
     4.8571   4.8659   4.8812   4.9028   4.9056   4.9126   4.9424   4.9487
     4.9542   4.9777   4.9813   4.9957   5.0014   5.0040   5.0112   5.0269
     5.0295   5.0472   5.0557   5.0797   5.0992   5.1037   5.1108   5.1192
     5.1485   5.1785   5.1880   5.1900   5.1992   5.2402   5.2448   5.2505
     5.2745   5.2746   5.3005   5.3232   5.3607   5.3612   5.3796   5.3900
     5.4085   5.4134   5.4329   5.4397   5.4477   5.4519   5.4581   5.4669
     5.4758   5.4818   5.4929   5.5123   5.5325   5.5350   5.5461   5.5659
     5.5809   5.5893   5.6004   5.6085   5.6187   5.6461   5.6599   5.6702
     5.6703   5.6850   5.6971   5.7383   5.7523   5.7552   5.7627   5.7694
     5.7866   5.8024   5.8086   5.8306   5.8419   5.8441   5.8697   5.8959
     5.8989   5.9032   5.9062   5.9218   5.9412   5.9527   5.9697   5.9793
     5.9922   5.9939   6.0057   6.0070   6.0208   6.0247   6.0397   6.0465
     6.0627   6.0646   6.0752   6.0790   6.0814   6.1019   6.1389   6.1400
     6.1530   6.1706   6.1773   6.1781   6.1853   6.1949   6.1950   6.2032
     6.2040   6.2152   6.2204   6.2222   6.2300   6.2346   6.2438   6.2493
     6.2651   6.2652   6.2978   6.3061   6.3107   6.3308   6.3443   6.3645
     6.3737   6.3789   6.3867   6.3914   6.4052   6.4064   6.4102   6.4175
     6.4304   6.4357   6.4446   6.4545   6.4593   6.4614   6.4798   6.4930
     6.5126   6.5158   6.5165   6.5308   6.5589   6.5633   6.5647   6.5893
     6.6243   6.6390   6.6476   6.6610   6.6867   6.7004   6.7036   6.7102
     6.7129   6.7899   6.8083   6.8304   6.9008   6.9038   7.0368   7.0448
     7.0564   7.1587   7.3104   7.3471   7.3800   7.5686   7.5832   7.6135
     7.6835   7.8962   8.1150   8.2719   8.3435   8.4010   8.5024   8.6555
     8.9268   9.0182   9.0663   9.1224   9.2273   9.4168   9.5026   9.5993
     9.6257   9.6729   9.8455   9.8883   9.8993   9.9211   9.9251  10.0438
    10.1184  10.1416  10.2488  10.4138  10.4616  10.5330  10.5512  10.5841
    10.6277  10.7316  10.8576  11.0368  11.0518  11.0606  11.2436  11.3894
    11.4985  11.5491  11.5826  11.6984  11.8924  11.9459  12.0836  12.0925
    12.1921  12.2856  12.3445  12.3900  12.4532  12.5621  12.5980  12.6903
    12.8317  12.9822  13.0402  13.1129  13.1495  13.2451  13.2768  13.2788
    13.3735  13.3746  13.4832  13.5420  13.6269  13.6399  13.6617  13.7674
    13.8337  13.9447  14.0389  14.0745  14.0912  14.1921  14.2435  14.3199
    14.3753  14.3830  14.4084

          k = 0.2917 0.0481 0.0000 ( 55058 PWs)   bands (ev):

    -0.3681  -0.0350   0.4510   0.9340   1.0198   1.1953   1.3531   1.4555
     1.5407   1.5602   1.5752   1.6082   1.6540   1.7427   1.8360   1.8516
     1.8581   1.9268   1.9355   1.9442   1.9685   1.9864   2.0083   2.0149
     2.0592   2.1027   2.1096   2.1685   2.1984   2.2043   2.2245   2.2445
     2.2803   2.3080   2.3260   2.3318   2.3549   2.3929   2.4284   2.4665
     2.4877   2.5136   2.5202   2.5476   2.5521   2.5642   2.5681   2.5776
     2.5962   2.6210   2.6683   2.6824   2.6988   2.7235   2.7341   2.7666
     2.7747   2.7841   2.7883   2.7956   2.8147   2.8212   2.8466   2.8532
     2.8572   2.8982   2.9032   2.9214   2.9349   2.9423   2.9598   3.0439
     3.0563   3.0637   3.0662   3.0849   3.0967   3.1117   3.1119   3.1290
     3.1538   3.1655   3.1788   3.1881   3.2022   3.2064   3.2334   3.2417
     3.2558   3.2567   3.2800   3.3021   3.3071   3.3250   3.3272   3.3481
     3.3492   3.3796   3.3819   3.3983   3.4154   3.4272   3.4351   3.4414
     3.4530   3.4655   3.4691   3.4790   3.4857   3.5124   3.5135   3.5211
     3.5387   3.5938   3.6198   3.6446   3.6486   3.6673   3.6800   3.6887
     3.6940   3.6943   3.7211   3.7453   3.7656   3.7759   3.8068   3.8188
     3.8232   3.8332   3.8502   3.8526   3.8563   3.8646   3.8652   3.8940
     3.8952   3.8962   3.9090   3.9155   3.9290   3.9347   3.9770   3.9803
     3.9858   3.9984   4.0121   4.0209   4.0241   4.0329   4.0456   4.0515
     4.0602   4.0635   4.0671   4.0902   4.1007   4.1008   4.1093   4.1254
     4.1347   4.1566   4.1585   4.1649   4.1717   4.1817   4.1877   4.1920
     4.1935   4.1966   4.2038   4.2579   4.2605   4.2625   4.2645   4.2650
     4.2757   4.2823   4.3028   4.3264   4.3274   4.3626   4.3717   4.3823
     4.3899   4.4016   4.4110   4.4377   4.4435   4.4576   4.4625   4.4689
     4.4875   4.4956   4.5345   4.5439   4.5612   4.5684   4.5955   4.6094
     4.6159   4.6185   4.6226   4.6693   4.6720   4.6960   4.7175   4.7258
     4.7479   4.7571   4.7629   4.7728   4.7916   4.8210   4.8222   4.8452
     4.8496   4.9044   4.9076   4.9123   4.9278   4.9421   4.9475   4.9633
     4.9717   5.0018   5.0082   5.0090   5.0172   5.0350   5.0355   5.0538
     5.0754   5.0855   5.0935   5.1155   5.1188   5.1204   5.1405   5.1598
     5.1795   5.1814   5.1826   5.1833   5.2001   5.2017   5.2228   5.2242
     5.2262   5.2466   5.2858   5.2984   5.3052   5.3308   5.3321   5.3363
     5.3382   5.3492   5.3569   5.3581   5.3745   5.3915   5.4316   5.4378
     5.4454   5.4534   5.4950   5.5071   5.5215   5.5243   5.5275   5.5355
     5.5504   5.5520   5.5779   5.5814   5.6044   5.6305   5.6352   5.6491
     5.6826   5.6988   5.7126   5.7242   5.7258   5.7352   5.7369   5.7837
     5.7903   5.8208   5.8221   5.8333   5.8408   5.8497   5.8656   5.8764
     5.8925   5.8937   5.9150   5.9182   5.9195   5.9231   5.9365   5.9428
     5.9471   5.9645   5.9672   5.9798   5.9956   5.9961   6.0046   6.0221
     6.0347   6.0443   6.0471   6.0552   6.0593   6.0739   6.0749   6.0939
     6.1053   6.1068   6.1112   6.1118   6.1374   6.1511   6.1530   6.1576
     6.1660   6.1704   6.1781   6.1845   6.1868   6.1946   6.2045   6.2079
     6.2191   6.2251   6.2286   6.2330   6.2373   6.2451   6.2463   6.2553
     6.2553   6.2669   6.2716   6.2811   6.2853   6.2907   6.2971   6.3105
     6.3185   6.3239   6.3327   6.3398   6.3533   6.3595   6.3782   6.4022
     6.4112   6.4342   6.4552   6.4576   6.4640   6.4768   6.4869   6.5111
     6.5187   6.5382   6.5431   6.5513   6.5610   6.5733   6.6053   6.6078
     6.6168   6.6332   6.6519   6.7523   6.8336   6.8434   6.8497   7.0250
     7.0433   7.0694   7.1383   7.3218   7.3902   7.4502   7.5048   7.5592
     7.6751   7.7619   7.7769   8.1870   8.3176   8.3275   8.4070   8.5057
     8.5513   8.9504   9.1541   9.1957   9.2039   9.2745   9.3500   9.4315
     9.5609   9.5968   9.8071  10.0618  10.0887  10.1080  10.1145  10.2360
    10.3163  10.4054  10.4275  10.5699  10.6038  10.6502  10.7538  10.8438
    10.9611  10.9785  10.9989  11.2134  11.2962  11.3198  11.4308  11.5298
    11.5651  11.6562  11.7079  11.7444  11.8666  11.8931  12.1668  12.2110
    12.2807  12.3412  12.3796  12.5300  12.6837  12.6965  12.7819  12.7871
    12.7924  12.9219  12.9951  13.0183  13.0305  13.1706  13.1773  13.2655
    13.3817  13.5637  13.6174  13.6375  13.7551  13.7613  13.8095  13.8821
    13.9294  13.9925  14.0038  14.0995  14.1100  14.2537  14.3157  14.3772
    14.4932  14.5558  14.6929

          k = 0.2917 0.1443 0.0000 ( 55039 PWs)   bands (ev):

    -0.2734   0.0569   0.5325   0.5387   0.8261   1.1032   1.2517   1.4452
     1.5139   1.6202   1.6547   1.7083   1.7531   1.7533   1.8919   1.9077
     1.9130   1.9172   1.9601   1.9789   2.0071   2.0175   2.0272   2.0826
     2.1292   2.1381   2.1447   2.1526   2.1892   2.2042   2.2326   2.3009
     2.3164   2.3278   2.3473   2.3572   2.4180   2.4340   2.4352   2.4509
     2.4608   2.4810   2.5194   2.5224   2.5238   2.5381   2.5406   2.5660
     2.5684   2.5990   2.6021   2.6042   2.6062   2.6251   2.6463   2.6512
     2.6555   2.6853   2.7142   2.7793   2.7947   2.8136   2.8170   2.8212
     2.8251   2.8306   2.8464   2.8669   2.8945   2.9314   2.9346   2.9366
     2.9513   2.9851   3.0256   3.0585   3.0860   3.0895   3.1080   3.1118
     3.1387   3.1636   3.1647   3.2037   3.2288   3.2319   3.2648   3.2684
     3.2904   3.2935   3.3120   3.3383   3.3443   3.3450   3.3704   3.3711
     3.3848   3.4124   3.4265   3.4392   3.4527   3.4559   3.4616   3.4669
     3.5056   3.5106   3.5119   3.5392   3.5478   3.5590   3.5596   3.6048
     3.6276   3.6359   3.6484   3.6587   3.6622   3.6767   3.6832   3.6881
     3.6975   3.7305   3.7371   3.7386   3.7485   3.7525   3.7719   3.7993
     3.8000   3.8401   3.8451   3.8816   3.8833   3.8993   3.9063   3.9115
     3.9280   3.9423   3.9459   3.9833   3.9836   3.9839   3.9866   4.0155
     4.0208   4.0318   4.0503   4.0679   4.0772   4.0802   4.0854   4.1023
     4.1092   4.1227   4.1304   4.1404   4.1423   4.1569   4.1587   4.1626
     4.1957   4.1966   4.2082   4.2175   4.2240   4.2323   4.2448   4.2476
     4.2613   4.2738   4.2764   4.2783   4.2795   4.2984   4.2989   4.3069
     4.3112   4.3149   4.3202   4.3330   4.3444   4.3604   4.3654   4.3744
     4.3775   4.3885   4.3963   4.4473   4.4483   4.4567   4.4711   4.4712
     4.4753   4.5009   4.5324   4.5349   4.5449   4.5578   4.5774   4.5883
     4.6040   4.6110   4.6216   4.6455   4.6810   4.7053   4.7221   4.7246
     4.7456   4.7481   4.7704   4.7766   4.7789   4.7881   4.7891   4.8284
     4.8643   4.8658   4.8760   4.8845   4.8860   4.8899   4.9350   4.9385
     4.9499   4.9598   4.9609   4.9693   4.9780   4.9818   4.9932   5.0011
     5.0204   5.0227   5.0338   5.0605   5.0701   5.0776   5.1159   5.1207
     5.1380   5.1407   5.1417   5.1763   5.1801   5.1882   5.1921   5.2044
     5.2350   5.2364   5.2410   5.2654   5.2783   5.2808   5.2840   5.3082
     5.3146   5.3302   5.3405   5.3509   5.3678   5.3712   5.3907   5.4078
     5.4249   5.4409   5.4762   5.4764   5.4769   5.4833   5.5004   5.5012
     5.5014   5.5482   5.5622   5.5694   5.6042   5.6069   5.6086   5.6377
     5.6398   5.6444   5.6460   5.6785   5.7056   5.7066   5.7250   5.7643
     5.7704   5.7819   5.7930   5.8028   5.8060   5.8061   5.8251   5.8300
     5.8497   5.8639   5.8654   5.8679   5.8725   5.8742   5.8747   5.9027
     5.9343   5.9469   5.9602   5.9626   5.9906   6.0007   6.0151   6.0247
     6.0373   6.0388   6.0400   6.0551   6.0699   6.0711   6.0797   6.0845
     6.0973   6.0979   6.1139   6.1142   6.1175   6.1279   6.1389   6.1582
     6.1586   6.1674   6.1730   6.1742   6.1874   6.2028   6.2084   6.2199
     6.2305   6.2332   6.2468   6.2487   6.2506   6.2603   6.2658   6.2727
     6.2731   6.2771   6.2789   6.2851   6.2876   6.2933   6.3086   6.3214
     6.3269   6.3431   6.3595   6.3653   6.3889   6.3938   6.3985   6.4057
     6.4064   6.4320   6.4492   6.4511   6.4820   6.4914   6.5059   6.5128
     6.5224   6.5432   6.5534   6.5659   6.5661   6.5898   6.6062   6.6201
     6.6327   6.6381   6.6434   6.6859   6.6893   6.7299   6.9245   6.9248
     7.0479   7.0654   7.2741   7.4939   7.5484   7.7307   7.7764   7.8007
     7.9452   7.9757   8.1506   8.2575   8.2735   8.2895   8.3697   8.5300
     8.5463   8.5880   8.6313   8.8933   9.1128   9.1192   9.2910   9.3416
     9.6031   9.6246   9.7716   9.8273   9.8984  10.0791  10.1321  10.2288
    10.2449  10.2737  10.5215  10.6216  10.7042  10.7222  10.7303  10.8689
    11.0463  11.1559  11.2131  11.2896  11.2953  11.3935  11.4102  11.4933
    11.5979  11.6753  11.8268  11.8560  11.8662  11.9337  11.9901  12.2276
    12.2620  12.3669  12.3864  12.4261  12.4972  12.6324  12.8162  12.8850
    12.9058  12.9941  13.0533  13.0566  13.1441  13.3114  13.3803  13.4296
    13.4738  13.5616  13.6660  13.7753  13.7869  13.8454  13.9326  13.9661
    13.9701  14.0724  14.1195  14.2746  14.2919  14.3064  14.3945  14.4481
    14.4610  14.6420  14.6511

          k = 0.2917 0.2406 0.0000 ( 55053 PWs)   bands (ev):

    -0.0867   0.1857   0.2373   0.4984   0.7098   0.9539   1.2644   1.4408
     1.4598   1.4902   1.6632   1.6923   1.7735   1.8935   1.9116   1.9300
     1.9507   1.9844   2.0383   2.0466   2.1077   2.1106   2.1113   2.1413
     2.1656   2.1856   2.1975   2.2006   2.2150   2.2356   2.2485   2.2929
     2.3160   2.3180   2.3262   2.3327   2.3627   2.3653   2.3755   2.3855
     2.4305   2.4337   2.4619   2.4670   2.4851   2.5087   2.5095   2.5370
     2.5512   2.5627   2.5867   2.5915   2.5991   2.6207   2.6453   2.6636
     2.6783   2.6824   2.6915   2.7283   2.7308   2.7643   2.7657   2.7658
     2.7810   2.8202   2.8366   2.8678   2.8720   2.8937   2.8948   2.9181
     2.9231   2.9537   2.9794   2.9892   2.9984   3.0497   3.0777   3.0834
     3.1142   3.1695   3.1772   3.1928   3.1966   3.2460   3.2506   3.2639
     3.2820   3.2914   3.3062   3.3228   3.3321   3.3420   3.3685   3.4055
     3.4118   3.4540   3.4594   3.4749   3.4861   3.4862   3.4879   3.5106
     3.5184   3.5223   3.5506   3.5660   3.5822   3.5852   3.5859   3.5952
     3.6084   3.6239   3.6440   3.6612   3.6742   3.6951   3.6990   3.7271
     3.7443   3.7466   3.7601   3.8139   3.8195   3.8359   3.8493   3.8575
     3.8903   3.8914   3.8921   3.8974   3.9200   3.9214   3.9386   3.9648
     3.9709   3.9943   3.9943   4.0213   4.0351   4.0368   4.0444   4.0530
     4.0546   4.0662   4.0702   4.0852   4.0916   4.1066   4.1083   4.1251
     4.1354   4.1357   4.1384   4.1723   4.1752   4.1854   4.1951   4.2117
     4.2249   4.2319   4.2336   4.2466   4.2529   4.2619   4.2643   4.2795
     4.2896   4.2896   4.3136   4.3137   4.3320   4.3391   4.3408   4.3497
     4.3581   4.3692   4.3779   4.3812   4.3985   4.4064   4.4094   4.4363
     4.4399   4.4468   4.4492   4.4590   4.4715   4.5034   4.5197   4.5280
     4.5360   4.5541   4.5637   4.5804   4.5843   4.5866   4.5950   4.6078
     4.6094   4.6278   4.6326   4.6435   4.6456   4.6644   4.6739   4.6841
     4.6879   4.7018   4.7019   4.7120   4.7153   4.7318   4.7354   4.7528
     4.7757   4.7842   4.7949   4.8115   4.8157   4.8459   4.8614   4.8701
     4.8792   4.8834   4.8952   4.9263   4.9505   4.9568   4.9599   4.9688
     4.9823   5.0012   5.0077   5.0128   5.0313   5.0384   5.0689   5.0743
     5.0995   5.1175   5.1237   5.1378   5.1399   5.1422   5.1919   5.1934
     5.2005   5.2363   5.2511   5.2562   5.2674   5.2732   5.2741   5.3282
     5.3488   5.3516   5.3590   5.3630   5.3689   5.3694   5.3938   5.4212
     5.4299   5.4352   5.4442   5.4746   5.4756   5.4834   5.4862   5.4968
     5.5076   5.5276   5.5318   5.5351   5.5618   5.5666   5.5751   5.5823
     5.5880   5.6164   5.6235   5.6322   5.6587   5.6669   5.6729   5.6741
     5.6833   5.6845   5.7017   5.7038   5.7509   5.7618   5.7682   5.7792
     5.7850   5.7938   5.8157   5.8218   5.8261   5.8336   5.8399   5.8486
     5.8631   5.8634   5.8667   5.8956   5.9248   5.9260   5.9514   5.9725
     5.9808   5.9826   6.0351   6.0406   6.0441   6.0447   6.0594   6.0742
     6.0785   6.0987   6.1182   6.1248   6.1335   6.1459   6.1503   6.1533
     6.1662   6.1743   6.1850   6.1851   6.1853   6.2038   6.2163   6.2164
     6.2172   6.2223   6.2272   6.2344   6.2433   6.2502   6.2574   6.2659
     6.2750   6.2811   6.2943   6.2992   6.3219   6.3318   6.3323   6.3392
     6.3450   6.3680   6.3790   6.3866   6.4064   6.4064   6.4119   6.4447
     6.4485   6.4571   6.4769   6.4816   6.5001   6.5279   6.5280   6.5321
     6.5519   6.5561   6.5597   6.5712   6.5798   6.6252   6.6372   6.6463
     6.6612   6.6884   6.7073   6.7859   6.9631   7.0524   7.0719   7.0725
     7.1245   7.1976   7.2155   7.4951   7.6055   7.6509   7.6809   7.8154
     7.8625   7.8906   7.9144   8.2539   8.4280   8.4910   8.5653   8.5742
     8.5797   8.7092   8.7553   8.9832   9.0191   9.1774   9.3042   9.3184
     9.4020   9.4511   9.6119   9.7537   9.8261   9.9024   9.9146  10.1068
    10.2201  10.2960  10.4216  10.4932  10.5535  10.7646  10.8097  10.8738
    11.0009  11.0827  11.1012  11.1537  11.2807  11.2939  11.2964  11.4190
    11.5452  11.7827  11.8596  12.0279  12.1210  12.1903  12.3049  12.3495
    12.3903  12.4784  12.4983  12.6506  12.6594  12.7776  12.8746  12.9365
    12.9771  13.0762  13.1662  13.1684  13.2626  13.3233  13.4157  13.5246
    13.5408  13.7077  13.7484  13.7665  13.8268  13.9554  13.9643  14.0431
    14.1426  14.2054  14.2494  14.3754  14.3760  14.4868  14.5309  14.5538
    14.5906  14.6825  14.7079

          k = 0.3750 0.0481 0.0000 ( 55067 PWs)   bands (ev):

    -0.0847   0.2399   0.7139   1.0430   1.1485   1.2719   1.2943   1.3872
     1.5596   1.5860   1.6524   1.7200   1.7420   1.7841   1.7874   1.8188
     1.9843   2.0165   2.0455   2.0638   2.0743   2.1064   2.1175   2.1584
     2.1597   2.1605   2.1811   2.2208   2.2483   2.2684   2.2786   2.3423
     2.3863   2.4081   2.4492   2.4520   2.4580   2.4966   2.5076   2.5233
     2.5873   2.5947   2.5970   2.5986   2.6201   2.6392   2.6679   2.6955
     2.7209   2.7222   2.7238   2.7323   2.7395   2.7626   2.7889   2.7937
     2.8030   2.8651   2.8651   2.8672   2.8857   2.8996   2.9060   2.9229
     2.9330   2.9371   2.9515   2.9523   2.9916   2.9946   3.0086   3.0232
     3.0250   3.0441   3.0848   3.1098   3.1113   3.1269   3.1436   3.1680
     3.1691   3.1790   3.1887   3.1941   3.2294   3.2307   3.2327   3.2436
     3.2544   3.2594   3.2837   3.2872   3.2958   3.3045   3.3239   3.3244
     3.3288   3.3480   3.3629   3.3795   3.3833   3.3983   3.4113   3.4145
     3.4515   3.4519   3.4592   3.4710   3.4804   3.4892   3.5048   3.5223
     3.5334   3.5487   3.5776   3.5962   3.5998   3.6110   3.6513   3.6612
     3.6687   3.6838   3.6932   3.7051   3.7101   3.7161   3.7227   3.7751
     3.8098   3.8314   3.8375   3.8415   3.8470   3.8618   3.8621   3.8635
     3.8812   3.8853   3.9088   3.9338   3.9345   3.9347   3.9532   3.9580
     3.9742   3.9757   3.9929   4.0020   4.0116   4.0332   4.0339   4.0458
     4.0520   4.0543   4.0562   4.0807   4.0813   4.0961   4.0972   4.1062
     4.1104   4.1258   4.1321   4.1485   4.1556   4.1751   4.1860   4.1976
     4.2021   4.2037   4.2120   4.2202   4.2584   4.2721   4.2908   4.2963
     4.2966   4.2983   4.3329   4.3408   4.3421   4.3454   4.3578   4.3787
     4.3869   4.4071   4.4216   4.4274   4.4399   4.4497   4.4509   4.4528
     4.4900   4.4992   4.5130   4.5339   4.5553   4.5609   4.5975   4.6015
     4.6043   4.6207   4.6295   4.6363   4.6468   4.6524   4.6567   4.6794
     4.6796   4.6877   4.7161   4.7167   4.7303   4.7569   4.7613   4.7935
     4.7960   4.8001   4.8321   4.8683   4.8998   4.9236   4.9254   4.9365
     4.9393   4.9534   4.9556   4.9594   4.9630   4.9784   5.0019   5.0068
     5.0096   5.0268   5.0295   5.0609   5.0614   5.0623   5.0758   5.0780
     5.1054   5.1084   5.1361   5.1587   5.1607   5.1699   5.1784   5.1986
     5.2096   5.2167   5.2258   5.2319   5.2498   5.2578   5.2592   5.2645
     5.2733   5.2991   5.3292   5.3344   5.3385   5.3529   5.3733   5.3776
     5.3968   5.4210   5.4283   5.4285   5.4431   5.4740   5.5020   5.5062
     5.5147   5.5325   5.5438   5.5579   5.5665   5.5817   5.5876   5.5882
     5.5883   5.6049   5.6052   5.6464   5.6579   5.6593   5.6680   5.6831
     5.7008   5.7051   5.7091   5.7091   5.7299   5.7327   5.7332   5.7562
     5.7639   5.7912   5.8047   5.8067   5.8364   5.8485   5.8937   5.8944
     5.9056   5.9092   5.9234   5.9291   5.9371   5.9463   5.9534   5.9658
     5.9712   5.9811   5.9936   5.9954   5.9984   6.0275   6.0446   6.0454
     6.0554   6.0590   6.0651   6.0671   6.0852   6.0911   6.1018   6.1023
     6.1100   6.1131   6.1188   6.1403   6.1454   6.1466   6.1496   6.1585
     6.1735   6.1741   6.1876   6.1892   6.1928   6.1986   6.2009   6.2043
     6.2059   6.2156   6.2270   6.2300   6.2435   6.2471   6.2515   6.2741
     6.2818   6.2968   6.3020   6.3195   6.3198   6.3242   6.3368   6.3377
     6.3414   6.3524   6.3832   6.3983   6.4279   6.4374   6.4443   6.4444
     6.4674   6.4762   6.4813   6.4967   6.5002   6.5420   6.5518   6.5624
     6.5974   6.6062   6.6178   6.6196   6.6487   6.7402   6.7660   6.9105
     7.0281   7.0355   7.0979   7.1077   7.1109   7.2480   7.3597   7.4693
     7.7231   7.7554   7.7938   7.9447   8.0550   8.2669   8.5445   8.5654
     8.6215   8.7745   8.8096   9.2502   9.2766   9.4288   9.5096   9.5953
     9.6424   9.6724   9.8008   9.9117  10.1947  10.2083  10.3044  10.3817
    10.4572  10.5648  10.5682  10.5811  10.6072  10.6578  10.6672  10.9099
    10.9660  11.0596  11.1383  11.2195  11.2812  11.3055  11.4244  11.5623
    11.5724  11.5769  11.8827  12.0165  12.0316  12.1814  12.2921  12.3729
    12.4711  12.5363  12.6540  12.7613  12.7971  12.9503  13.0298  13.0916
    13.1357  13.1712  13.1771  13.2720  13.4017  13.4151  13.5098  13.5855
    13.5984  13.7316  13.8513  13.8722  13.8970  13.9953  14.0614  14.1352
    14.1418  14.1718  14.2963  14.3061  14.3882  14.4298  14.5286  14.5542
    14.5598  14.6099  14.8984

          k = 0.3750 0.1443 0.0000 ( 55097 PWs)   bands (ev):

     0.0043   0.3249   0.7648   0.7924   1.0400   1.0800   1.3256   1.3420
     1.4109   1.4342   1.6407   1.6657   1.8475   1.8860   1.8928   1.9330
     1.9966   2.0399   2.0444   2.0489   2.1096   2.1634   2.1798   2.1980
     2.2130   2.2221   2.2320   2.2386   2.2535   2.3214   2.3721   2.3756
     2.3833   2.3941   2.4170   2.4658   2.4676   2.4958   2.5111   2.5287
     2.5441   2.5599   2.5708   2.5931   2.6086   2.6276   2.6332   2.6569
     2.6864   2.6871   2.6937   2.6984   2.7137   2.7330   2.7413   2.7475
     2.7635   2.8053   2.8086   2.8102   2.8460   2.8545   2.8812   2.9025
     2.9240   2.9282   2.9394   2.9423   2.9485   2.9532   2.9570   2.9806
     3.0349   3.0613   3.0713   3.1120   3.1219   3.1264   3.1645   3.1753
     3.1933   3.2016   3.2079   3.2242   3.2348   3.2638   3.2741   3.2753
     3.2779   3.2908   3.2915   3.3119   3.3141   3.3200   3.3232   3.3268
     3.3509   3.3759   3.3937   3.3960   3.4241   3.4606   3.4609   3.4656
     3.4969   3.5008   3.5142   3.5232   3.5330   3.5376   3.5478   3.5581
     3.5744   3.5791   3.5923   3.5948   3.6156   3.6269   3.6322   3.6424
[...]
     4.9106   4.9274   4.9353   4.9412   4.9563   4.9619   4.9723   4.9730
     4.9836   4.9988   5.0192   5.0299   5.0376   5.0464   5.0565   5.0631
     5.0696   5.0881   5.1353   5.1384   5.1418   5.1519   5.1603   5.1817
     5.1930   5.2011   5.2158   5.2244   5.2316   5.2382   5.2385   5.2496
     5.2621   5.2649   5.2688   5.2854   5.2873   5.2994   5.3199   5.3219
     5.3521   5.3538   5.3789   5.3897   5.4065   5.4140   5.4167   5.4190
     5.4240   5.4507   5.4525   5.4534   5.4784   5.4895   5.5109   5.5350
     5.5428   5.5472   5.5558   5.5767   5.5768   5.6003   5.6225   5.6274
     5.6571   5.6593   5.6606   5.6750   5.6762   5.6971   5.6998   5.7093
     5.7106   5.7248   5.7289   5.7473   5.7608   5.8051   5.8078   5.8214
     5.8242   5.8547   5.8652   5.8668   5.8824   5.8890   5.8964   5.9166
     5.9397   5.9406   5.9428   5.9575   5.9592   5.9807   5.9825   5.9955
     5.9988   6.0111   6.0283   6.0516   6.0529   6.0659   6.0668   6.0705
     6.0725   6.0859   6.0972   6.1009   6.1085   6.1222   6.1292   6.1426
     6.1520   6.1546   6.1623   6.1676   6.1698   6.1783   6.1960   6.2138
     6.2142   6.2209   6.2212   6.2349   6.2390   6.2596   6.2742   6.2766
     6.2827   6.2838   6.2944   6.3191   6.3228   6.3285   6.3459   6.3473
     6.3744   6.3751   6.3796   6.3879   6.3962   6.4044   6.4056   6.4092
     6.4346   6.4633   6.4700   6.4868   6.5194   6.5289   6.5607   6.5809
     6.5846   6.5918   6.5939   6.6048   6.6689   6.7170   6.7855   6.7993
     6.8275   6.8683   6.9979   7.0630   7.1345   7.2655   7.3380   7.3797
     7.6220   7.6911   7.8919   8.0544   8.0607   8.0795   8.4061   8.4152
     8.7454   8.9185   8.9280   8.9783   9.2564   9.2891   9.5701   9.6860
     9.8605   9.8717   9.8789   9.9776  10.0901  10.2000  10.2070  10.3143
    10.3642  10.4598  10.6741  10.7058  10.7283  10.7896  10.8917  10.9388
    10.9853  11.0331  11.1308  11.2359  11.2424  11.2823  11.5721  11.6062
    11.7217  11.7565  11.8985  11.9043  12.2161  12.2255  12.3721  12.4558
    12.5406  12.6018  12.7298  12.7435  12.8884  13.0226  13.0522  13.0811
    13.1579  13.2152  13.3233  13.3387  13.4678  13.4686  13.5778  13.8358
    13.8432  13.8851  13.8897  13.9143  14.1447  14.1705  14.2822  14.4034
    14.4102  14.5054  14.5555  14.6908  14.7369  14.8497  14.8651  14.9130
    14.9247  14.9400  15.0208

          k = 0.4583 0.1443 0.0000 ( 55107 PWs)   bands (ev):

     0.3331   0.6378   0.6987   0.9787   1.0131   1.0802   1.2410   1.2639
     1.3799   1.4718   1.6001   1.6099   1.7607   1.8464   1.9944   2.0410
     2.0650   2.0786   2.0841   2.1753   2.2536   2.2538   2.2714   2.2721
     2.2973   2.3060   2.3271   2.3590   2.3682   2.4026   2.4252   2.4335
     2.4502   2.4613   2.4713   2.4806   2.4996   2.5019   2.5439   2.5454
     2.5731   2.5948   2.5973   2.6219   2.6593   2.6745   2.6771   2.6810
     2.6944   2.7226   2.7598   2.7747   2.7761   2.7801   2.7972   2.8073
     2.8114   2.8324   2.8377   2.8537   2.8595   2.8696   2.8873   2.9299
     2.9322   2.9382   2.9462   2.9789   2.9960   3.0142   3.0355   3.0690
     3.0795   3.0822   3.0843   3.1257   3.1368   3.1603   3.1782   3.1824
     3.2005   3.2245   3.2392   3.2421   3.2675   3.2739   3.2740   3.2745
     3.3071   3.3115   3.3143   3.3281   3.3343   3.3391   3.3602   3.3673
     3.3839   3.3845   3.4119   3.4217   3.4237   3.4347   3.4607   3.4616
     3.4698   3.4763   3.4792   3.4959   3.5086   3.5315   3.5335   3.5473
     3.5511   3.5556   3.5684   3.5877   3.6220   3.6229   3.6272   3.6411
     3.6610   3.6749   3.6913   3.6997   3.7077   3.7384   3.7511   3.7626
     3.7707   3.7794   3.8156   3.8159   3.8361   3.8387   3.8535   3.8622
     3.8700   3.8762   3.8973   3.9148   3.9442   3.9452   3.9550   3.9590
     3.9937   3.9947   3.9987   4.0081   4.0247   4.0265   4.0547   4.0722
     4.0727   4.0819   4.1113   4.1157   4.1351   4.1400   4.1454   4.1462
     4.1516   4.1607   4.1687   4.1761   4.1853   4.1980   4.2031   4.2062
     4.2130   4.2164   4.2228   4.2261   4.2289   4.2326   4.2457   4.2463
     4.2668   4.2763   4.2776   4.2879   4.2984   4.2986   4.3105   4.3178
     4.3304   4.3688   4.3700   4.3804   4.3804   4.3887   4.4332   4.4537
     4.4642   4.4659   4.4719   4.4881   4.4945   4.5212   4.5234   4.5756
     4.5985   4.6014   4.6136   4.6408   4.6535   4.6545   4.6599   4.6770
     4.6838   4.6984   4.7062   4.7097   4.7194   4.7418   4.7589   4.7697
     4.7757   4.8297   4.8450   4.8507   4.8595   4.8664   4.8749   4.8757
     4.8994   4.9085   4.9256   4.9276   4.9485   4.9632   4.9656   4.9864
     4.9892   4.9924   5.0061   5.0079   5.0292   5.0354   5.0419   5.0658
     5.0720   5.0992   5.1150   5.1157   5.1303   5.1463   5.1482   5.1488
     5.1583   5.1942   5.1953   5.2024   5.2106   5.2236   5.2265   5.2340
     5.2418   5.2458   5.2524   5.2610   5.2834   5.2913   5.3124   5.3204
     5.3244   5.3283   5.3304   5.3401   5.3553   5.3615   5.3870   5.4084
     5.4123   5.4193   5.4258   5.4270   5.4288   5.4376   5.4491   5.4772
     5.4822   5.4958   5.5097   5.5211   5.5356   5.5458   5.5523   5.5847
     5.5929   5.5984   5.6082   5.6219   5.6319   5.6325   5.6368   5.6380
     5.6651   5.6743   5.6912   5.6938   5.6944   5.7055   5.7216   5.7357
     5.7451   5.7456   5.7683   5.7722   5.7737   5.7857   5.7969   5.8192
     5.8218   5.8358   5.8689   5.8718   5.9141   5.9256   5.9280   5.9437
     5.9465   5.9478   5.9557   5.9750   5.9823   5.9823   6.0104   6.0165
     6.0247   6.0277   6.0327   6.0715   6.0921   6.1040   6.1082   6.1131
     6.1346   6.1454   6.1599   6.1623   6.1766   6.1902   6.2050   6.2050
     6.2051   6.2081   6.2162   6.2563   6.2599   6.2750   6.2817   6.2831
     6.2864   6.2969   6.2971   6.3195   6.3425   6.3543   6.3647   6.3789
     6.3891   6.3946   6.4002   6.4470   6.4536   6.4600   6.4614   6.4891
     6.4932   6.4983   6.5168   6.5402   6.5433   6.5995   6.6070   6.6191
     6.6299   6.6426   6.7425   6.8480   6.8542   6.9991   7.0641   7.0847
     7.1194   7.2419   7.3239   7.3244   7.3414   7.4301   7.5134   7.5804
     7.7311   7.8221   8.0152   8.1140   8.2147   8.2561   8.4529   8.5499
     8.7953   8.8001   8.9361   9.0777   9.0921   9.1197   9.1200   9.2793
     9.4349   9.4445   9.4481   9.6588   9.8411   9.9826  10.0121  10.1378
    10.1753  10.4072  10.4493  10.4914  10.6180  10.7169  10.9127  11.1101
    11.2248  11.3089  11.3202  11.4990  11.5990  11.6358  11.7603  11.7670
    11.8741  12.0287  12.0817  12.1876  12.2589  12.3867  12.4923  12.5809
    12.6147  12.7650  12.7787  12.9113  12.9157  13.0220  13.1306  13.1929
    13.2288  13.2742  13.3041  13.4214  13.4527  13.6141  13.6769  13.7431
    13.7514  13.8662  14.0074  14.0388  14.1162  14.1445  14.2000  14.2545
    14.3440  14.4558  14.4678  14.6108  14.6259  14.6715  14.7233  14.7744
    14.8798  14.8925  15.0194

          k = 0.4583 0.2406 0.0000 ( 55107 PWs)   bands (ev):

     0.4900   0.7195   0.7832   0.8244   0.9951   1.0079   1.0909   1.2050
     1.2568   1.3853   1.4637   1.5911   1.6938   1.8290   1.8812   1.9454
     2.1291   2.2124   2.2302   2.2342   2.2906   2.3019   2.3253   2.3294
     2.3449   2.3579   2.3764   2.3991   2.4063   2.4122   2.4230   2.4262
     2.4281   2.4603   2.4838   2.4857   2.5135   2.5375   2.5646   2.5757
     2.5800   2.5880   2.5981   2.5985   2.6207   2.6351   2.6613   2.6941
     2.7148   2.7165   2.7267   2.7429   2.7450   2.7601   2.7757   2.7809
     2.8065   2.8147   2.8344   2.8370   2.8554   2.8595   2.8608   2.9117
     2.9196   2.9373   2.9567   3.0112   3.0219   3.0565   3.0675   3.0804
     3.0827   3.0851   3.1109   3.1307   3.1430   3.1802   3.1965   3.1988
     3.2088   3.2123   3.2232   3.2249   3.2282   3.2628   3.2673   3.3166
     3.3245   3.3291   3.3475   3.3606   3.3732   3.3732   3.3758   3.4096
     3.4138   3.4347   3.4388   3.4389   3.4642   3.4731   3.4748   3.4860
     3.4961   3.5062   3.5150   3.5186   3.5381   3.5389   3.5579   3.5709
     3.5764   3.5919   3.5982   3.6016   3.6210   3.6244   3.6252   3.6259
     3.6620   3.6933   3.6961   3.7151   3.7189   3.7209   3.7304   3.7343
     3.7458   3.7769   3.7904   3.8107   3.8252   3.8493   3.8556   3.8750
     3.9043   3.9165   3.9225   3.9245   3.9307   3.9784   3.9923   4.0057
     4.0125   4.0283   4.0391   4.0392   4.0685   4.0857   4.0912   4.0969
     4.0978   4.1141   4.1202   4.1296   4.1351   4.1424   4.1624   4.1638
     4.1649   4.1710   4.1783   4.1811   4.1971   4.1987   4.1994   4.1997
     4.2101   4.2141   4.2187   4.2308   4.2316   4.2318   4.2373   4.2388
     4.2502   4.2579   4.2678   4.2784   4.2826   4.3152   4.3280   4.3446
     4.3560   4.3625   4.3719   4.3894   4.4065   4.4266   4.4295   4.4344
     4.4625   4.4630   4.4842   4.4911   4.5224   4.5407   4.5500   4.5661
     4.5770   4.5908   4.6078   4.6396   4.6475   4.6521   4.6668   4.6844
     4.6859   4.6991   4.7036   4.7446   4.7456   4.7649   4.7789   4.7974
     4.8058   4.8112   4.8235   4.8281   4.8300   4.8585   4.8722   4.8738
     4.8799   4.8859   4.8883   4.8945   4.9184   4.9463   4.9534   4.9647
     4.9812   4.9913   4.9930   5.0146   5.0228   5.0341   5.0423   5.0586
     5.0606   5.0733   5.0783   5.0865   5.1211   5.1335   5.1352   5.1486
     5.1512   5.1553   5.1611   5.1618   5.1853   5.1901   5.1908   5.2043
     5.2070   5.2220   5.2285   5.2320   5.2391   5.2424   5.2462   5.2585
     5.2645   5.2834   5.2886   5.3120   5.3162   5.3273   5.3311   5.3446
     5.3556   5.3761   5.3810   5.3951   5.3952   5.3988   5.4130   5.4318
     5.4342   5.4461   5.4563   5.4577   5.4592   5.4743   5.4745   5.4950
     5.5088   5.5185   5.5322   5.5360   5.5554   5.5643   5.5679   5.5771
     5.5938   5.6046   5.6218   5.6452   5.6453   5.6472   5.6583   5.6787
     5.6857   5.7123   5.7298   5.7429   5.7494   5.7627   5.7692   5.7723
     5.7765   5.7980   5.8071   5.8105   5.8328   5.8582   5.8599   5.8764
     5.9022   5.9106   5.9465   5.9470   5.9580   5.9633   5.9686   5.9774
     6.0529   6.0563   6.0730   6.0734   6.0890   6.1073   6.1077   6.1083
     6.1230   6.1393   6.1402   6.1503   6.1575   6.1653   6.1819   6.1859
     6.2138   6.2189   6.2333   6.2468   6.2976   6.3309   6.3374   6.3453
     6.3621   6.3650   6.3763   6.3832   6.3850   6.3864   6.3942   6.4091
     6.4163   6.4484   6.4526   6.4779   6.4780   6.4783   6.5015   6.5173
     6.5363   6.5465   6.5481   6.5651   6.6059   6.6346   6.6370   6.6372
     6.6817   6.6917   6.6970   6.7463   6.9340   7.0626   7.1468   7.2575
     7.5253   7.5291   7.5832   7.6861   7.8061   7.8153   7.8493   7.8703
     8.0011   8.1132   8.1925   8.2136   8.2979   8.3494   8.4063   8.4239
     8.5149   8.6486   8.6487   8.6700   8.7881   8.9664   9.0636   9.1464
     9.2312   9.2985   9.3146   9.4963   9.5762   9.6973   9.8240  10.0040
    10.2243  10.2644  10.2982  10.3937  10.5521  10.5644  10.6808  10.9349
    11.0861  11.2965  11.4510  11.5487  11.6655  11.8309  11.9312  12.0007
    12.0633  12.2786  12.3151  12.3561  12.7414  12.7790  12.8734  12.8935
    12.9050  13.0225  13.0937  13.1006  13.1796  13.2277  13.2494  13.2597
    13.2951  13.3790  13.4405  13.4717  13.5042  13.5235  13.7601  13.7659
    13.8180  13.9333  13.9337  13.9392  14.0279  14.0491  14.0698  14.1278
    14.1629  14.2311  14.2433  14.3237  14.3738  14.4019  14.4230  14.5571
    14.6072  14.7687  14.8814

     the Fermi energy is     8.2690 ev

!    total energy              =   -7346.35669908 Ry
     estimated scf accuracy    <       0.00000008 Ry
     smearing contrib. (-TS)   =       0.09482838 Ry
     internal energy E=F+TS    =   -7346.45152746 Ry

     The total energy is F=E-TS. E is the sum of the following terms:
     one-electron contribution =  -33899.28165879 Ry
     hartree contribution      =   17698.40662115 Ry
     xc contribution           =   -3551.00850247 Ry
     ewald contribution        =   12405.43201265 Ry

     convergence has been achieved in  22 iterations

     negative rho (up, down):  1.957E+00 0.000E+00

     Forces acting on atoms (cartesian axes, Ry/au):

     atom    1 type  1   force =     0.00000000   -0.00165307    0.02670896
     atom    2 type  1   force =     0.00000000   -0.00165325    0.02670898
     atom    3 type  1   force =     0.00000000   -0.00165299    0.02670867
     atom    4 type  1   force =     0.00000000   -0.00165320    0.02670905
     atom    5 type  1   force =     0.00000012    0.00337108   -0.01657617
     atom    6 type  1   force =    -0.00000012    0.00337108   -0.01657617
     atom    7 type  1   force =     0.00000008    0.00337113   -0.01657628
     atom    8 type  1   force =    -0.00000008    0.00337113   -0.01657628
     atom    9 type  1   force =     0.00000000   -0.00161274   -0.00967153
     atom   10 type  1   force =     0.00000000   -0.00161245   -0.00967155
     atom   11 type  1   force =     0.00000000   -0.00161278   -0.00967159
     atom   12 type  1   force =     0.00000000   -0.00161258   -0.00967159
     atom   13 type  1   force =     0.00000000    0.00056147   -0.00390699
     atom   14 type  1   force =     0.00000000    0.00056142   -0.00390686
     atom   15 type  1   force =     0.00000000   -0.00053437    0.00451682
     atom   16 type  1   force =    -0.00000000   -0.00053437    0.00451682
     atom   17 type  1   force =     0.00000000    0.00056148   -0.00390685
     atom   18 type  1   force =     0.00000000    0.00056149   -0.00390690
     atom   19 type  1   force =    -0.00000001   -0.00053439    0.00451670
     atom   20 type  1   force =     0.00000001   -0.00053439    0.00451670
     atom   21 type  1   force =     0.00000000    0.00028769   -0.00076735
     atom   22 type  1   force =     0.00000000    0.00028771   -0.00076735
     atom   23 type  1   force =     0.00000003   -0.00045140   -0.00053641
     atom   24 type  1   force =     0.00000000    0.00028776   -0.00076739
     atom   25 type  1   force =    -0.00000001   -0.00045141   -0.00053642
     atom   26 type  1   force =    -0.00000003   -0.00045140   -0.00053641
     atom   27 type  1   force =     0.00000001   -0.00045141   -0.00053642
     atom   28 type  1   force =     0.00000000    0.00028775   -0.00076741
     atom   29 type  1   force =     0.00000001   -0.00018634    0.00040617
     atom   30 type  1   force =     0.00000000    0.00019746   -0.00056690
     atom   31 type  1   force =     0.00000001   -0.00018637    0.00040616
     atom   32 type  1   force =    -0.00000001   -0.00018637    0.00040616
     atom   33 type  1   force =    -0.00000001   -0.00018634    0.00040617
     atom   34 type  1   force =     0.00000000    0.00019740   -0.00056693
     atom   35 type  1   force =     0.00000000    0.00019760   -0.00056694
     atom   36 type  1   force =     0.00000000    0.00019760   -0.00056690
     atom   37 type  1   force =     0.00000000    0.00018808   -0.00040911
     atom   38 type  1   force =     0.00000000    0.00018807   -0.00040919
     atom   39 type  1   force =     0.00000000   -0.00019679    0.00056619
     atom   40 type  1   force =    -0.00000000   -0.00019679    0.00056619
     atom   41 type  1   force =     0.00000004   -0.00019682    0.00056615
     atom   42 type  1   force =     0.00000000    0.00018806   -0.00040913
     atom   43 type  1   force =     0.00000000    0.00018807   -0.00040911
     atom   44 type  1   force =    -0.00000004   -0.00019682    0.00056615
     atom   45 type  1   force =     0.00000000    0.00045213    0.00054115
     atom   46 type  1   force =     0.00000000    0.00045211    0.00054113
     atom   47 type  1   force =     0.00000000    0.00045217    0.00054115
     atom   48 type  1   force =     0.00000000    0.00045211    0.00054111
     atom   49 type  1   force =     0.00000004   -0.00028685    0.00076994
     atom   50 type  1   force =    -0.00000004   -0.00028685    0.00076994
     atom   51 type  1   force =     0.00000002   -0.00028693    0.00076991
     atom   52 type  1   force =    -0.00000002   -0.00028693    0.00076991
     atom   53 type  1   force =     0.00000000    0.00053561   -0.00452176
     atom   54 type  1   force =     0.00000000   -0.00056090    0.00389934
     atom   55 type  1   force =     0.00000001   -0.00056094    0.00389932
     atom   56 type  1   force =    -0.00000000   -0.00056090    0.00389934
     atom   57 type  1   force =    -0.00000001   -0.00056094    0.00389932
     atom   58 type  1   force =     0.00000000    0.00053539   -0.00452178
     atom   59 type  1   force =     0.00000000    0.00053564   -0.00452172
     atom   60 type  1   force =     0.00000000    0.00053542   -0.00452177
     atom   61 type  1   force =     0.00000004    0.00161075    0.00966966
     atom   62 type  1   force =     0.00000000   -0.00336936    0.01657397
     atom   63 type  1   force =     0.00000000   -0.00336950    0.01657398
     atom   64 type  1   force =     0.00000000   -0.00336936    0.01657397
     atom   65 type  1   force =     0.00000000   -0.00336943    0.01657395
     atom   66 type  1   force =     0.00000003    0.00161084    0.00966974
     atom   67 type  1   force =    -0.00000004    0.00161075    0.00966966
     atom   68 type  1   force =    -0.00000003    0.00161084    0.00966974
     atom   69 type  1   force =    -0.00000006    0.00164769   -0.02669584
     atom   70 type  1   force =    -0.00000010    0.00164753   -0.02669571
     atom   71 type  1   force =     0.00000006    0.00164769   -0.02669584
     atom   72 type  1   force =     0.00000010    0.00164753   -0.02669571

     Total force =     0.095328     Total SCF correction =     0.000868
 
     init_run     :     39.14s CPU     10.61s WALL (       1 calls)
     electrons    :   2276.99s CPU    605.54s WALL (       1 calls)
     forces       :     14.88s CPU      3.84s WALL (       1 calls)

     Called by init_run:
     wfcinit      :     37.41s CPU      9.63s WALL (       1 calls)
     potinit      :      0.51s CPU      0.16s WALL (       1 calls)
     hinit0       :      0.57s CPU      0.27s WALL (       1 calls)

     Called by electrons:
     c_bands      :   2031.94s CPU    542.04s WALL (      23 calls)
     sum_band     :    235.63s CPU     60.87s WALL (      23 calls)
     v_of_rho     :      4.06s CPU      1.09s WALL (      23 calls)
     newd         :      3.95s CPU      1.19s WALL (      23 calls)
     mix_rho      :      1.02s CPU      0.27s WALL (      23 calls)

     Called by c_bands:
     init_us_2    :      8.51s CPU      2.21s WALL (     432 calls)
     cegterg      :   1910.26s CPU    489.09s WALL (     207 calls)

     Called by *egterg:
     cdiaghg      :    518.20s CPU    132.48s WALL (    1282 calls)
     h_psi        :    897.99s CPU    230.05s WALL (    1300 calls)
     s_psi        :     90.74s CPU     23.04s WALL (    1300 calls)
     g_psi        :      1.92s CPU      0.49s WALL (    1084 calls)

     Called by h_psi:
     h_psi:calbec :    128.61s CPU     33.01s WALL (    1300 calls)
     vloc_psi     :    672.24s CPU    172.35s WALL (    1300 calls)
     add_vuspsi   :     92.28s CPU     23.38s WALL (    1300 calls)

     General routines
     calbec       :    191.66s CPU     49.21s WALL (    1543 calls)
     fft          :      2.81s CPU      0.75s WALL (     309 calls)
     ffts         :      0.21s CPU      0.07s WALL (      46 calls)
     fftw         :    789.64s CPU    201.46s WALL (  537671 calls)
     interpolate  :      0.33s CPU      0.10s WALL (      23 calls)
 
     Parallel routines
     fft_scatt_xy :     58.21s CPU     15.08s WALL (  538026 calls)
     fft_scatt_yz :    468.54s CPU    120.84s WALL (  538026 calls)
 
     PWSCF        :  38m51.69s CPU  10m21.58s WALL

 
   This run was terminated on:   4:48:53   8Sep2021            

=------------------------------------------------------------------------------=
   JOB DONE.
=------------------------------------------------------------------------------=
