
     Program PWSCF v.6.6 starts on 20Sep2021 at 17:58:44 

     This program is part of the open-source Quantum ESPRESSO suite
     for quantum simulation of materials; please cite
         "P. Giannozzi et al., J. Phys.:Condens. Matter 21 395502 (2009);
         "P. Giannozzi et al., J. Phys.:Condens. Matter 29 465901 (2017);
          URL http://www.quantum-espresso.org", 
     in publications or presentations arising from this work. More details at
     http://www.quantum-espresso.org/quote

     Parallel version (MPI & OpenMP), running on     768 processor cores
     Number of MPI processes:               384
     Threads/MPI process:                     2

     MPI processes distributed on    16 nodes
     K-points division:     npool     =       2
     R & G space division:  proc/nbgrp/npool/nimage =     192
     Fft bands division:     nmany     =       1
     Reading input from ../inputs/input_ausurf_288

     Current dimensions of program PWSCF are:
     Max number of different atomic species (ntypx) = 10
     Max number of k-points (npk) =  40000
     Max angular momentum in pseudopotentials (lmaxx) =  3

     Subspace diagonalization in iterative solution of the eigenvalue problem:
     one sub-group per band group will be used
     ELPA distributed-memory algorithm (size of sub-group: 13* 13 procs)

     Found symmetry operation: I + (  0.2500  0.0000  0.0000)
     This is a supercell, fractional translations are disabled
 
     Parallelization info
     --------------------
     sticks:   dense  smooth     PW     G-vecs:    dense   smooth      PW
     Min         124      57     14                29674     9169    1210
     Max         125      58     15                29699     9183    1235
     Sum       23985   10951   2855              5700737  1762171  235477
 

     Title: 
      Ausurf                                                                    


     bravais-lattice index     =            8
     lattice parameter (alat)  =      22.2988  a.u.
     unit-cell volume          =   51555.9485 (a.u.)^3
     number of atoms/cell      =          288
     number of atomic types    =            1
     number of electrons       =      3168.00
     number of Kohn-Sham states=         1901
     kinetic-energy cutoff     =      40.0000  Ry
     charge density cutoff     =     350.0000  Ry
     convergence threshold     =      1.0E-06
     mixing beta               =       0.7000
     number of iterations used =            8  TF        mixing
     Exchange-correlation=  SLA  PW   PBE  PBE
                           (   1   4   3   4   0   0   0)

     celldm(1)=  22.298768  celldm(2)=   1.732051  celldm(3)=   2.684575
     celldm(4)=   0.000000  celldm(5)=   0.000000  celldm(6)=   0.000000

     crystal axes: (cart. coord. in units of alat)
               a(1) = (   1.000000   0.000000   0.000000 )  
               a(2) = (   0.000000   1.732051   0.000000 )  
               a(3) = (   0.000000   0.000000   2.684575 )  

     reciprocal axes: (cart. coord. in units 2 pi/alat)
               b(1) = (  1.000000  0.000000  0.000000 )  
               b(2) = (  0.000000  0.577350  0.000000 )  
               b(3) = (  0.000000  0.000000  0.372498 )  


     PseudoPot. # 1 for Au read from file:
     /marconi/home/userexternal/czeni000/dft_src/pseudo/Au.pbe-nd-van.UPF
     MD5 check sum: deb5c07af10777505a79e28f5b4b4115
     Pseudo is Ultrasoft + core correction, Zval = 11.0
     Generated by new atomic code, or converted to UPF format
     Using radial grid of  985 points,  3 beta functions with: 
                l(1) =   1
                l(2) =   2
                l(3) =   2
     Q(r) pseudized with  8 coefficients,  rinner =    1.100   1.100   1.100
                                                       1.100   1.100

     atomic species   valence    mass     pseudopotential
        Au            11.00   196.96000     Au( 1.00)

      2 Sym. Ops. (no inversion) found



   Cartesian axes

     site n.     atom                  positions (alat units)
         1           Au  tau(   1) = (   0.0000000   0.0000000   0.0000000  )
         2           Au  tau(   2) = (   0.2500000   0.0000000   0.0000000  )
         3           Au  tau(   3) = (   0.5000000   0.0000000   0.0000000  )
         4           Au  tau(   4) = (   0.0000000   0.4330127   0.0000000  )
         5           Au  tau(   5) = (   0.7500000   0.0000000   0.0000000  )
         6           Au  tau(   6) = (   0.2500000   0.4330127   0.0000000  )
         7           Au  tau(   7) = (   0.5000000   0.4330127   0.0000000  )
         8           Au  tau(   8) = (   0.0000000   0.8660254   0.0000000  )
         9           Au  tau(   9) = (   0.7500000   0.4330127   0.0000000  )
        10           Au  tau(  10) = (   0.2500000   0.8660254   0.0000000  )
        11           Au  tau(  11) = (   0.5000000   0.8660254   0.0000000  )
        12           Au  tau(  12) = (   0.0000000   1.2990381   0.0000000  )
        13           Au  tau(  13) = (   0.7500000   0.8660254   0.0000000  )
        14           Au  tau(  14) = (   0.2500000   1.2990381   0.0000000  )
        15           Au  tau(  15) = (   0.5000000   1.2990381   0.0000000  )
        16           Au  tau(  16) = (   0.7500000   1.2990381   0.0000000  )
        17           Au  tau(  17) = (   0.1250000   0.0721688   0.2041242  )
        18           Au  tau(  18) = (   0.3750000   0.0721688   0.2041242  )
        19           Au  tau(  19) = (   0.6250000   0.0721688   0.2041242  )
        20           Au  tau(  20) = (   0.1250000   0.5051815   0.2041242  )
        21           Au  tau(  21) = (   0.6250000   0.5051815   0.2041242  )
        22           Au  tau(  22) = (   0.8750000   0.0721688   0.2041242  )
        23           Au  tau(  23) = (   0.1250000   0.9381942   0.2041242  )
        24           Au  tau(  24) = (   0.3750000   0.5051815   0.2041242  )
        25           Au  tau(  25) = (   0.3750000   0.9381942   0.2041242  )
        26           Au  tau(  26) = (   0.8750000   0.5051815   0.2041242  )
        27           Au  tau(  27) = (   0.2500000   0.2886752   0.2041242  )
        28           Au  tau(  28) = (   0.2500000   0.7216878   0.2041242  )
        29           Au  tau(  29) = (   1.0000000   0.2886752   0.2041242  )
        30           Au  tau(  30) = (   0.3750000   1.3712069   0.2041242  )
        31           Au  tau(  31) = (   0.6250000   0.9381942   0.2041242  )
        32           Au  tau(  32) = (   0.5000000   0.2886752   0.2041242  )
        33           Au  tau(  33) = (   0.7500000   0.2886752   0.2041242  )
        34           Au  tau(  34) = (   0.1250000   1.3712069   0.2041242  )
        35           Au  tau(  35) = (   0.6250000   1.3712069   0.2041242  )
        36           Au  tau(  36) = (   0.8750000   0.9381942   0.2041242  )
        37           Au  tau(  37) = (   0.8750000   1.3712069   0.2041242  )
        38           Au  tau(  38) = (   0.5000000   0.7216878   0.2041242  )
        39           Au  tau(  39) = (   0.7500000   0.7216878   0.2041242  )
        40           Au  tau(  40) = (   0.7500000   1.1547005   0.2041242  )
        41           Au  tau(  41) = (   0.2500000   1.1547005   0.2041242  )
        42           Au  tau(  42) = (   0.5000000   1.1547005   0.2041242  )
        43           Au  tau(  43) = (   1.0000000   0.7216878   0.2041242  )
        44           Au  tau(  44) = (   0.2500000   1.5877132   0.2041242  )
        45           Au  tau(  45) = (   0.5000000   1.5877132   0.2041242  )
        46           Au  tau(  46) = (   1.0000000   1.1547005   0.2041242  )
        47           Au  tau(  47) = (   0.7500000   1.5877132   0.2041242  )
        48           Au  tau(  48) = (   1.0000000   1.5877132   0.2041242  )
        49           Au  tau(  49) = (   0.2500000   0.1443375   0.4082483  )
        50           Au  tau(  50) = (   0.6250000   0.3608439   0.4082483  )
        51           Au  tau(  51) = (   0.5000000   0.1443375   0.4082483  )
        52           Au  tau(  52) = (   0.7500000   0.1443375   0.4082483  )
        53           Au  tau(  53) = (   0.1250000   0.3608439   0.4082483  )
        54           Au  tau(  54) = (   0.3750000   0.3608439   0.4082483  )
        55           Au  tau(  55) = (   0.2500000   0.5773503   0.4082483  )
        56           Au  tau(  56) = (   0.5000000   0.5773503   0.4082483  )
        57           Au  tau(  57) = (   0.5000000   1.0103630   0.4082483  )
        58           Au  tau(  58) = (   0.5000000   1.4433757   0.4082483  )
        59           Au  tau(  59) = (   0.7500000   0.5773503   0.4082483  )
        60           Au  tau(  60) = (   1.0000000   0.1443375   0.4082483  )
        61           Au  tau(  61) = (   0.1250000   0.7938566   0.4082483  )
        62           Au  tau(  62) = (   0.1250000   1.2268693   0.4082483  )
        63           Au  tau(  63) = (   0.1250000   1.6598820   0.4082483  )
        64           Au  tau(  64) = (   0.3750000   0.7938566   0.4082483  )
        65           Au  tau(  65) = (   0.3750000   1.2268693   0.4082483  )
        66           Au  tau(  66) = (   0.8750000   0.3608439   0.4082483  )
        67           Au  tau(  67) = (   0.8750000   0.7938566   0.4082483  )
        68           Au  tau(  68) = (   0.8750000   1.2268693   0.4082483  )
        69           Au  tau(  69) = (   0.8750000   1.6598820   0.4082483  )
        70           Au  tau(  70) = (   0.2500000   1.0103630   0.4082483  )
        71           Au  tau(  71) = (   0.2500000   1.4433757   0.4082483  )
        72           Au  tau(  72) = (   0.7500000   1.0103630   0.4082483  )
        73           Au  tau(  73) = (   0.7500000   1.4433757   0.4082483  )
        74           Au  tau(  74) = (   1.0000000   0.5773503   0.4082483  )
        75           Au  tau(  75) = (   1.0000000   1.0103630   0.4082483  )
        76           Au  tau(  76) = (   1.0000000   1.4433757   0.4082483  )
        77           Au  tau(  77) = (   0.3750000   1.6598820   0.4082483  )
        78           Au  tau(  78) = (   0.6250000   0.7938566   0.4082483  )
        79           Au  tau(  79) = (   0.6250000   1.2268693   0.4082483  )
        80           Au  tau(  80) = (   0.6250000   1.6598820   0.4082483  )
        81           Au  tau(  81) = (   0.6250000   0.2165064   0.6123725  )
        82           Au  tau(  82) = (   0.0000000   0.0000000   0.6123725  )
        83           Au  tau(  83) = (   0.2500000   0.0000000   0.6123725  )
        84           Au  tau(  84) = (   0.5000000   0.0000000   0.6123725  )
        85           Au  tau(  85) = (   0.1250000   0.2165064   0.6123725  )
        86           Au  tau(  86) = (   0.0000000   0.8660254   0.6123725  )
        87           Au  tau(  87) = (   0.2500000   0.4330127   0.6123725  )
        88           Au  tau(  88) = (   0.2500000   0.8660254   0.6123725  )
        89           Au  tau(  89) = (   0.5000000   0.4330127   0.6123725  )
        90           Au  tau(  90) = (   0.7500000   0.4330127   0.6123725  )
        91           Au  tau(  91) = (   0.1250000   0.6495191   0.6123725  )
        92           Au  tau(  92) = (   0.3750000   0.2165064   0.6123725  )
        93           Au  tau(  93) = (   0.3750000   0.6495191   0.6123725  )
        94           Au  tau(  94) = (   0.6250000   0.6495191   0.6123725  )
        95           Au  tau(  95) = (   0.8750000   0.2165064   0.6123725  )
        96           Au  tau(  96) = (   0.0000000   0.4330127   0.6123725  )
        97           Au  tau(  97) = (   0.2500000   1.2990381   0.6123725  )
        98           Au  tau(  98) = (   0.5000000   1.2990381   0.6123725  )
        99           Au  tau(  99) = (   0.7500000   0.0000000   0.6123725  )
       100           Au  tau( 100) = (   0.7500000   1.2990381   0.6123725  )
       101           Au  tau( 101) = (   0.1250000   1.0825318   0.6123725  )
       102           Au  tau( 102) = (   0.1250000   1.5155445   0.6123725  )
       103           Au  tau( 103) = (   0.3750000   1.0825318   0.6123725  )
       104           Au  tau( 104) = (   0.3750000   1.5155445   0.6123725  )
       105           Au  tau( 105) = (   0.6250000   1.0825318   0.6123725  )
       106           Au  tau( 106) = (   0.8750000   0.6495191   0.6123725  )
       107           Au  tau( 107) = (   0.8750000   1.0825318   0.6123725  )
       108           Au  tau( 108) = (   0.0000000   1.2990381   0.6123725  )
       109           Au  tau( 109) = (   0.5000000   0.8660254   0.6123725  )
       110           Au  tau( 110) = (   0.7500000   0.8660254   0.6123725  )
       111           Au  tau( 111) = (   0.6250000   1.5155445   0.6123725  )
       112           Au  tau( 112) = (   0.8750000   1.5155445   0.6123725  )
       113           Au  tau( 113) = (   0.1250000   0.5051815   0.8164966  )
       114           Au  tau( 114) = (   0.8750000   0.0721688   0.8164966  )
       115           Au  tau( 115) = (   0.5000000   0.2886752   0.8164966  )
       116           Au  tau( 116) = (   0.1250000   0.0721688   0.8164966  )
       117           Au  tau( 117) = (   0.3750000   0.0721688   0.8164966  )
       118           Au  tau( 118) = (   0.3750000   0.5051815   0.8164966  )
       119           Au  tau( 119) = (   0.6250000   0.0721688   0.8164966  )
       120           Au  tau( 120) = (   0.2500000   0.2886752   0.8164966  )
       121           Au  tau( 121) = (   0.2500000   0.7216878   0.8164966  )
       122           Au  tau( 122) = (   0.5000000   0.7216878   0.8164966  )
       123           Au  tau( 123) = (   0.7500000   0.2886752   0.8164966  )
       124           Au  tau( 124) = (   1.0000000   0.2886752   0.8164966  )
       125           Au  tau( 125) = (   0.1250000   0.9381942   0.8164966  )
       126           Au  tau( 126) = (   0.1250000   1.3712069   0.8164966  )
       127           Au  tau( 127) = (   0.3750000   0.9381942   0.8164966  )
       128           Au  tau( 128) = (   0.3750000   1.3712069   0.8164966  )
       129           Au  tau( 129) = (   0.6250000   0.5051815   0.8164966  )
       130           Au  tau( 130) = (   0.6250000   0.9381942   0.8164966  )
       131           Au  tau( 131) = (   0.6250000   1.3712069   0.8164966  )
       132           Au  tau( 132) = (   0.8750000   0.5051815   0.8164966  )
       133           Au  tau( 133) = (   0.8750000   0.9381942   0.8164966  )
       134           Au  tau( 134) = (   0.8750000   1.3712069   0.8164966  )
       135           Au  tau( 135) = (   0.2500000   1.1547005   0.8164966  )
       136           Au  tau( 136) = (   0.2500000   1.5877132   0.8164966  )
       137           Au  tau( 137) = (   0.5000000   1.1547005   0.8164966  )
       138           Au  tau( 138) = (   0.5000000   1.5877132   0.8164966  )
       139           Au  tau( 139) = (   0.7500000   0.7216878   0.8164966  )
       140           Au  tau( 140) = (   0.7500000   1.1547005   0.8164966  )
       141           Au  tau( 141) = (   0.7500000   1.5877132   0.8164966  )
       142           Au  tau( 142) = (   1.0000000   0.7216878   0.8164966  )
       143           Au  tau( 143) = (   1.0000000   1.1547005   0.8164966  )
       144           Au  tau( 144) = (   1.0000000   1.5877132   0.8164966  )
       145           Au  tau( 145) = (   0.2500000   0.1443375   1.0206208  )
       146           Au  tau( 146) = (   0.5000000   0.1443375   1.0206208  )
       147           Au  tau( 147) = (   0.7500000   0.1443375   1.0206208  )
       148           Au  tau( 148) = (   0.1250000   0.3608439   1.0206208  )
       149           Au  tau( 149) = (   0.3750000   0.3608439   1.0206208  )
       150           Au  tau( 150) = (   0.3750000   0.7938566   1.0206208  )
       151           Au  tau( 151) = (   0.2500000   0.5773503   1.0206208  )
       152           Au  tau( 152) = (   0.2500000   1.0103630   1.0206208  )
       153           Au  tau( 153) = (   0.2500000   1.4433757   1.0206208  )
       154           Au  tau( 154) = (   0.5000000   0.5773503   1.0206208  )
       155           Au  tau( 155) = (   0.5000000   1.0103630   1.0206208  )
       156           Au  tau( 156) = (   0.5000000   1.4433757   1.0206208  )
       157           Au  tau( 157) = (   0.7500000   0.5773503   1.0206208  )
       158           Au  tau( 158) = (   0.7500000   1.0103630   1.0206208  )
       159           Au  tau( 159) = (   0.7500000   1.4433757   1.0206208  )
       160           Au  tau( 160) = (   1.0000000   0.1443375   1.0206208  )
       161           Au  tau( 161) = (   1.0000000   0.5773503   1.0206208  )
       162           Au  tau( 162) = (   1.0000000   1.0103630   1.0206208  )
       163           Au  tau( 163) = (   1.0000000   1.4433757   1.0206208  )
       164           Au  tau( 164) = (   0.1250000   0.7938566   1.0206208  )
       165           Au  tau( 165) = (   0.1250000   1.2268693   1.0206208  )
       166           Au  tau( 166) = (   0.1250000   1.6598820   1.0206208  )
       167           Au  tau( 167) = (   0.3750000   1.2268693   1.0206208  )
       168           Au  tau( 168) = (   0.3750000   1.6598820   1.0206208  )
       169           Au  tau( 169) = (   0.6250000   0.3608439   1.0206208  )
       170           Au  tau( 170) = (   0.6250000   0.7938566   1.0206208  )
       171           Au  tau( 171) = (   0.6250000   1.2268693   1.0206208  )
       172           Au  tau( 172) = (   0.6250000   1.6598820   1.0206208  )
       173           Au  tau( 173) = (   0.8750000   0.3608439   1.0206208  )
       174           Au  tau( 174) = (   0.8750000   0.7938566   1.0206208  )
       175           Au  tau( 175) = (   0.8750000   1.2268693   1.0206208  )
       176           Au  tau( 176) = (   0.8750000   1.6598820   1.0206208  )
       177           Au  tau( 177) = (   0.0000000   0.0000000   1.2247448  )
       178           Au  tau( 178) = (   0.0000000   0.4330127   1.2247448  )
       179           Au  tau( 179) = (   0.2500000   0.0000000   1.2247448  )
       180           Au  tau( 180) = (   0.2500000   0.4330127   1.2247448  )
       181           Au  tau( 181) = (   0.5000000   0.0000000   1.2247448  )
       182           Au  tau( 182) = (   0.7500000   0.0000000   1.2247448  )
       183           Au  tau( 183) = (   0.1250000   0.2165064   1.2247448  )
       184           Au  tau( 184) = (   0.3750000   0.2165064   1.2247448  )
       185           Au  tau( 185) = (   0.6250000   0.2165064   1.2247448  )
       186           Au  tau( 186) = (   0.0000000   1.2990381   1.2247448  )
       187           Au  tau( 187) = (   0.2500000   0.8660254   1.2247448  )
       188           Au  tau( 188) = (   0.2500000   1.2990381   1.2247448  )
       189           Au  tau( 189) = (   0.5000000   0.8660254   1.2247448  )
       190           Au  tau( 190) = (   0.5000000   1.2990381   1.2247448  )
       191           Au  tau( 191) = (   0.7500000   0.8660254   1.2247448  )
       192           Au  tau( 192) = (   0.7500000   1.2990381   1.2247448  )
       193           Au  tau( 193) = (   0.1250000   0.6495191   1.2247448  )
       194           Au  tau( 194) = (   0.1250000   1.0825318   1.2247448  )
       195           Au  tau( 195) = (   0.1250000   1.5155445   1.2247448  )
       196           Au  tau( 196) = (   0.3750000   0.6495191   1.2247448  )
       197           Au  tau( 197) = (   0.3750000   1.0825318   1.2247448  )
       198           Au  tau( 198) = (   0.3750000   1.5155445   1.2247448  )
       199           Au  tau( 199) = (   0.6250000   0.6495191   1.2247448  )
       200           Au  tau( 200) = (   0.6250000   1.0825318   1.2247448  )
       201           Au  tau( 201) = (   0.6250000   1.5155445   1.2247448  )
       202           Au  tau( 202) = (   0.8750000   0.2165064   1.2247448  )
       203           Au  tau( 203) = (   0.8750000   0.6495191   1.2247448  )
       204           Au  tau( 204) = (   0.8750000   1.0825318   1.2247448  )
       205           Au  tau( 205) = (   0.8750000   1.5155445   1.2247448  )
       206           Au  tau( 206) = (   0.0000000   0.8660254   1.2247448  )
       207           Au  tau( 207) = (   0.5000000   0.4330127   1.2247448  )
       208           Au  tau( 208) = (   0.7500000   0.4330127   1.2247448  )
       209           Au  tau( 209) = (   0.1250000   0.9381942   1.4288690  )
       210           Au  tau( 210) = (   0.3750000   0.9381942   1.4288690  )
       211           Au  tau( 211) = (   0.6250000   0.9381942   1.4288690  )
       212           Au  tau( 212) = (   0.8750000   0.5051815   1.4288690  )
       213           Au  tau( 213) = (   0.2500000   1.1547005   1.4288690  )
       214           Au  tau( 214) = (   0.5000000   0.7216878   1.4288690  )
       215           Au  tau( 215) = (   0.7500000   0.7216878   1.4288690  )
       216           Au  tau( 216) = (   1.0000000   0.7216878   1.4288690  )
       217           Au  tau( 217) = (   0.1250000   0.0721688   1.4288690  )
       218           Au  tau( 218) = (   0.1250000   0.5051815   1.4288690  )
       219           Au  tau( 219) = (   0.1250000   1.3712069   1.4288690  )
       220           Au  tau( 220) = (   0.3750000   0.0721688   1.4288690  )
       221           Au  tau( 221) = (   0.3750000   0.5051815   1.4288690  )
       222           Au  tau( 222) = (   0.6250000   0.0721688   1.4288690  )
       223           Au  tau( 223) = (   0.6250000   0.5051815   1.4288690  )
       224           Au  tau( 224) = (   0.8750000   0.0721688   1.4288690  )
       225           Au  tau( 225) = (   0.8750000   0.9381942   1.4288690  )
       226           Au  tau( 226) = (   0.2500000   0.2886752   1.4288690  )
       227           Au  tau( 227) = (   0.2500000   0.7216878   1.4288690  )
       228           Au  tau( 228) = (   0.2500000   1.5877132   1.4288690  )
       229           Au  tau( 229) = (   0.5000000   0.2886752   1.4288690  )
       230           Au  tau( 230) = (   0.5000000   1.1547005   1.4288690  )
       231           Au  tau( 231) = (   0.7500000   0.2886752   1.4288690  )
       232           Au  tau( 232) = (   0.7500000   1.1547005   1.4288690  )
       233           Au  tau( 233) = (   1.0000000   0.2886752   1.4288690  )
       234           Au  tau( 234) = (   1.0000000   1.1547005   1.4288690  )
       235           Au  tau( 235) = (   0.3750000   1.3712069   1.4288690  )
       236           Au  tau( 236) = (   0.6250000   1.3712069   1.4288690  )
       237           Au  tau( 237) = (   0.8750000   1.3712069   1.4288690  )
       238           Au  tau( 238) = (   0.5000000   1.5877132   1.4288690  )
       239           Au  tau( 239) = (   0.7500000   1.5877132   1.4288690  )
       240           Au  tau( 240) = (   1.0000000   1.5877132   1.4288690  )
       241           Au  tau( 241) = (   0.2500000   1.0103630   1.6329931  )
       242           Au  tau( 242) = (   0.5000000   1.0103630   1.6329931  )
       243           Au  tau( 243) = (   0.7500000   0.5773503   1.6329931  )
       244           Au  tau( 244) = (   1.0000000   0.5773503   1.6329931  )
       245           Au  tau( 245) = (   0.1250000   1.2268693   1.6329931  )
       246           Au  tau( 246) = (   0.3750000   0.7938566   1.6329931  )
       247           Au  tau( 247) = (   0.6250000   0.7938566   1.6329931  )
       248           Au  tau( 248) = (   0.8750000   0.7938566   1.6329931  )
       249           Au  tau( 249) = (   0.2500000   0.1443375   1.6329931  )
       250           Au  tau( 250) = (   0.2500000   0.5773503   1.6329931  )
       251           Au  tau( 251) = (   0.2500000   1.4433757   1.6329931  )
       252           Au  tau( 252) = (   0.5000000   0.1443375   1.6329931  )
       253           Au  tau( 253) = (   0.5000000   0.5773503   1.6329931  )
       254           Au  tau( 254) = (   0.7500000   0.1443375   1.6329931  )
       255           Au  tau( 255) = (   0.7500000   1.0103630   1.6329931  )
       256           Au  tau( 256) = (   1.0000000   0.1443375   1.6329931  )
       257           Au  tau( 257) = (   1.0000000   1.0103630   1.6329931  )
       258           Au  tau( 258) = (   0.1250000   0.3608439   1.6329931  )
       259           Au  tau( 259) = (   0.1250000   0.7938566   1.6329931  )
       260           Au  tau( 260) = (   0.1250000   1.6598820   1.6329931  )
       261           Au  tau( 261) = (   0.3750000   0.3608439   1.6329931  )
       262           Au  tau( 262) = (   0.3750000   1.2268693   1.6329931  )
       263           Au  tau( 263) = (   0.6250000   0.3608439   1.6329931  )
       264           Au  tau( 264) = (   0.6250000   1.2268693   1.6329931  )
       265           Au  tau( 265) = (   0.8750000   0.3608439   1.6329931  )
       266           Au  tau( 266) = (   0.8750000   1.2268693   1.6329931  )
       267           Au  tau( 267) = (   0.5000000   1.4433757   1.6329931  )
       268           Au  tau( 268) = (   0.7500000   1.4433757   1.6329931  )
       269           Au  tau( 269) = (   1.0000000   1.4433757   1.6329931  )
       270           Au  tau( 270) = (   0.3750000   1.6598820   1.6329931  )
       271           Au  tau( 271) = (   0.6250000   1.6598820   1.6329931  )
       272           Au  tau( 272) = (   0.8750000   1.6598820   1.6329931  )
       273           Au  tau( 273) = (   0.1250000   1.0825318   1.8371173  )
       274           Au  tau( 274) = (   0.3750000   1.0825318   1.8371173  )
       275           Au  tau( 275) = (   0.6250000   0.6495191   1.8371173  )
       276           Au  tau( 276) = (   0.8750000   0.6495191   1.8371173  )
       277           Au  tau( 277) = (   0.1250000   0.2165064   1.8371173  )
       278           Au  tau( 278) = (   0.1250000   0.6495191   1.8371173  )
       279           Au  tau( 279) = (   0.1250000   1.5155445   1.8371173  )
       280           Au  tau( 280) = (   0.3750000   0.2165064   1.8371173  )
       281           Au  tau( 281) = (   0.3750000   0.6495191   1.8371173  )
       282           Au  tau( 282) = (   0.6250000   0.2165064   1.8371173  )
       283           Au  tau( 283) = (   0.6250000   1.0825318   1.8371173  )
       284           Au  tau( 284) = (   0.8750000   0.2165064   1.8371173  )
       285           Au  tau( 285) = (   0.8750000   1.0825318   1.8371173  )
       286           Au  tau( 286) = (   0.8750000   1.5155445   1.8371173  )
       287           Au  tau( 287) = (   0.3750000   1.5155445   1.8371173  )
       288           Au  tau( 288) = (   0.6250000   1.5155445   1.8371173  )

     number of k points=     6  Marzari-Vanderbilt smearing, width (Ry)=  0.0500
                       cart. coord. in units 2pi/alat
        k(    1) = (   0.0833333   0.0962250   0.0000000), wk =   0.4444444
        k(    2) = (   0.0833333  -0.2886751   0.0000000), wk =   0.2222222
        k(    3) = (   0.2500000   0.0962250   0.0000000), wk =   0.4444444
        k(    4) = (   0.2500000  -0.2886751   0.0000000), wk =   0.2222222
        k(    5) = (   0.4166667   0.0962250   0.0000000), wk =   0.4444444
        k(    6) = (   0.4166667  -0.2886751   0.0000000), wk =   0.2222222

     Dense  grid:  5700737 G-vectors     FFT dimensions: ( 135, 240, 360)

     Smooth grid:  1762171 G-vectors     FFT dimensions: (  90, 160, 243)

     Estimated max dynamical RAM per process >     527.81 MB

     Estimated total dynamical RAM >     197.93 GB

     Initial potential from superposition of free atoms

     starting charge 3164.65577, renormalised to 3168.00000

     negative rho (up, down):  7.682E+00 0.000E+00
     Starting wfcs are 2592 randomized atomic wfcs

     total cpu time spent up to now is       51.7 secs

     Self-consistent Calculation

     iteration #  1     ecut=    40.00 Ry     beta= 0.70
     Davidson diagonalization with overlap
     ethr =  1.00E-02,  avg # of iterations =  3.0

     Threshold (ethr) on eigenvalues was too large:
     Diagonalizing with lowered threshold

     Davidson diagonalization with overlap
     ethr =  3.34E-04,  avg # of iterations =  4.0

     negative rho (up, down):  7.304E+00 0.000E+00

     total cpu time spent up to now is      284.2 secs

     total energy              =  -29385.07972185 Ry
     estimated scf accuracy    <      12.62104559 Ry

     iteration #  2     ecut=    40.00 Ry     beta= 0.70
     Davidson diagonalization with overlap
     ethr =  3.98E-04,  avg # of iterations =  1.8

     negative rho (up, down):  7.713E+00 0.000E+00

     total cpu time spent up to now is      380.9 secs

     total energy              =  -29385.64928934 Ry
     estimated scf accuracy    <       5.62952256 Ry

     iteration #  3     ecut=    40.00 Ry     beta= 0.70
     Davidson diagonalization with overlap
     ethr =  1.78E-04,  avg # of iterations =  2.0

     negative rho (up, down):  8.106E+00 0.000E+00

     total cpu time spent up to now is      476.1 secs

     total energy              =  -29385.61525882 Ry
     estimated scf accuracy    <       3.29574284 Ry

     iteration #  4     ecut=    40.00 Ry     beta= 0.70
     Davidson diagonalization with overlap
     ethr =  1.04E-04,  avg # of iterations = 15.3

     negative rho (up, down):  8.095E+00 0.000E+00

     total cpu time spent up to now is      665.3 secs

     total energy              =  -29385.56632041 Ry
     estimated scf accuracy    <       1.61146136 Ry

     iteration #  5     ecut=    40.00 Ry     beta= 0.70
     Davidson diagonalization with overlap
     ethr =  5.09E-05,  avg # of iterations = 16.7

     negative rho (up, down):  7.899E+00 0.000E+00

     total cpu time spent up to now is      810.7 secs

     total energy              =  -29385.53788113 Ry
     estimated scf accuracy    <       0.99499555 Ry

     iteration #  6     ecut=    40.00 Ry     beta= 0.70
     Davidson diagonalization with overlap
     ethr =  3.14E-05,  avg # of iterations = 10.3

     negative rho (up, down):  7.907E+00 0.000E+00

     total cpu time spent up to now is      925.4 secs

     total energy              =  -29385.52461670 Ry
     estimated scf accuracy    <       0.96671580 Ry

     iteration #  7     ecut=    40.00 Ry     beta= 0.70
     Davidson diagonalization with overlap
     ethr =  3.05E-05,  avg # of iterations =  3.3

     negative rho (up, down):  7.833E+00 0.000E+00

     total cpu time spent up to now is     1023.9 secs

     total energy              =  -29385.61236985 Ry
     estimated scf accuracy    <       0.99687981 Ry

     iteration #  8     ecut=    40.00 Ry     beta= 0.70
     Davidson diagonalization with overlap
     ethr =  3.05E-05,  avg # of iterations =  2.8

     negative rho (up, down):  8.181E+00 0.000E+00

     total cpu time spent up to now is     1121.4 secs

     total energy              =  -29385.43468978 Ry
     estimated scf accuracy    <       1.43730326 Ry

     iteration #  9     ecut=    40.00 Ry     beta= 0.70
     Davidson diagonalization with overlap
     ethr =  3.05E-05,  avg # of iterations = 14.2

     negative rho (up, down):  8.115E+00 0.000E+00

     total cpu time spent up to now is     1345.9 secs

     total energy              =  -29385.58513705 Ry
     estimated scf accuracy    <       4.39339171 Ry

     iteration # 10     ecut=    40.00 Ry     beta= 0.70
     Davidson diagonalization with overlap
     ethr =  3.05E-05,  avg # of iterations =  1.3

     negative rho (up, down):  8.304E+00 0.000E+00

     total cpu time spent up to now is     1437.7 secs

     total energy              =  -29385.51121580 Ry
     estimated scf accuracy    <       2.04282351 Ry

     iteration # 11     ecut=    40.00 Ry     beta= 0.70
     Davidson diagonalization with overlap
     ethr =  3.05E-05,  avg # of iterations =  1.0

     negative rho (up, down):  7.975E+00 0.000E+00

     total cpu time spent up to now is     1522.5 secs

     total energy              =  -29385.47146196 Ry
     estimated scf accuracy    <       1.16131900 Ry

     iteration # 12     ecut=    40.00 Ry     beta= 0.70
     Davidson diagonalization with overlap
     ethr =  3.05E-05,  avg # of iterations =  5.0

     negative rho (up, down):  8.377E+00 0.000E+00

     total cpu time spent up to now is     1628.9 secs

     total energy              =  -29385.40898455 Ry
     estimated scf accuracy    <       0.36617379 Ry

     iteration # 13     ecut=    40.00 Ry     beta= 0.70
     Davidson diagonalization with overlap
     ethr =  1.16E-05,  avg # of iterations = 13.0

     negative rho (up, down):  8.153E+00 0.000E+00

     total cpu time spent up to now is     1764.2 secs

     total energy              =  -29385.44575803 Ry
     estimated scf accuracy    <       0.06542059 Ry

     iteration # 14     ecut=    40.00 Ry     beta= 0.70
     Davidson diagonalization with overlap
     c_bands:  2 eigenvalues not converged
     ethr =  2.07E-06,  avg # of iterations = 18.3

     negative rho (up, down):  8.115E+00 0.000E+00

     total cpu time spent up to now is     1968.6 secs

     total energy              =  -29385.45490895 Ry
     estimated scf accuracy    <       0.30171149 Ry

     iteration # 15     ecut=    40.00 Ry     beta= 0.70
     Davidson diagonalization with overlap
     c_bands:  1 eigenvalues not converged
     ethr =  2.07E-06,  avg # of iterations = 13.2

     negative rho (up, down):  8.128E+00 0.000E+00

     total cpu time spent up to now is     2116.7 secs

     total energy              =  -29385.41948619 Ry
     estimated scf accuracy    <       0.22874946 Ry

     iteration # 16     ecut=    40.00 Ry     beta= 0.70
     Davidson diagonalization with overlap
     ethr =  2.07E-06,  avg # of iterations = 10.2

     negative rho (up, down):  7.971E+00 0.000E+00

     total cpu time spent up to now is     2266.0 secs

     total energy              =  -29385.42763642 Ry
     estimated scf accuracy    <       0.01287340 Ry

     iteration # 17     ecut=    40.00 Ry     beta= 0.70
     Davidson diagonalization with overlap
     ethr =  4.06E-07,  avg # of iterations =  8.5

     negative rho (up, down):  7.902E+00 0.000E+00

     total cpu time spent up to now is     2388.2 secs

     total energy              =  -29385.42493437 Ry
     estimated scf accuracy    <       0.02222585 Ry

     iteration # 18     ecut=    40.00 Ry     beta= 0.70
     Davidson diagonalization with overlap
     ethr =  4.06E-07,  avg # of iterations = 10.2

     negative rho (up, down):  7.850E+00 0.000E+00

     total cpu time spent up to now is     2530.5 secs

     total energy              =  -29385.42644557 Ry
     estimated scf accuracy    <       0.00077493 Ry

     iteration # 19     ecut=    40.00 Ry     beta= 0.70
     Davidson diagonalization with overlap
     c_bands:  1 eigenvalues not converged
     ethr =  2.45E-08,  avg # of iterations = 15.5

     negative rho (up, down):  7.844E+00 0.000E+00

     total cpu time spent up to now is     2679.8 secs

     total energy              =  -29385.42679712 Ry
     estimated scf accuracy    <       0.00126579 Ry

     iteration # 20     ecut=    40.00 Ry     beta= 0.70
     Davidson diagonalization with overlap
     ethr =  2.45E-08,  avg # of iterations =  5.0

     negative rho (up, down):  7.837E+00 0.000E+00

     total cpu time spent up to now is     2791.3 secs

     total energy              =  -29385.42665941 Ry
     estimated scf accuracy    <       0.00262990 Ry

     iteration # 21     ecut=    40.00 Ry     beta= 0.70
     Davidson diagonalization with overlap
     ethr =  2.45E-08,  avg # of iterations =  7.8

     negative rho (up, down):  7.836E+00 0.000E+00

     total cpu time spent up to now is     2904.5 secs

     total energy              =  -29385.42674386 Ry
     estimated scf accuracy    <       0.00011239 Ry

     iteration # 22     ecut=    40.00 Ry     beta= 0.70
     Davidson diagonalization with overlap
     ethr =  3.55E-09,  avg # of iterations =  3.0

     negative rho (up, down):  7.835E+00 0.000E+00

     total cpu time spent up to now is     3018.8 secs

     total energy              =  -29385.42678700 Ry
     estimated scf accuracy    <       0.00004904 Ry

     iteration # 23     ecut=    40.00 Ry     beta= 0.70
     Davidson diagonalization with overlap
     ethr =  1.55E-09,  avg # of iterations =  2.2

     negative rho (up, down):  7.835E+00 0.000E+00

     total cpu time spent up to now is     3130.9 secs

     total energy              =  -29385.42679163 Ry
     estimated scf accuracy    <       0.00000347 Ry

     iteration # 24     ecut=    40.00 Ry     beta= 0.70
     Davidson diagonalization with overlap
     ethr =  1.10E-10,  avg # of iterations =  4.8

     negative rho (up, down):  7.835E+00 0.000E+00

     total cpu time spent up to now is     3245.4 secs

     End of self-consistent calculation

          k = 0.0833 0.0962 0.0000 (220303 PWs)   bands (ev):

    -0.8129  -0.5139  -0.4713  -0.2262  -0.1778   0.0255   0.1020   0.2538
     0.3117   0.4901   0.5492   0.5641   0.5802   0.6015   0.6351   0.7196
     0.7833   0.8245   0.8362   0.8821   0.9223   0.9650   0.9952   1.0080
     1.0167   1.0910   1.1251   1.1388   1.2051   1.2160   1.2464   1.2569
     1.3387   1.3568   1.3854   1.4019   1.4435   1.4638   1.5058   1.5099
     1.5527   1.5573   1.5649   1.5684   1.5733   1.5835   1.5912   1.6036
     1.6143   1.6195   1.6432   1.6938   1.7091   1.7229   1.7261   1.7270
     1.7517   1.7548   1.7935   1.8040   1.8168   1.8291   1.8301   1.8328
     1.8477   1.8506   1.8522   1.8546   1.8556   1.8571   1.8642   1.8683
     1.8813   1.8950   1.9103   1.9218   1.9393   1.9455   1.9476   1.9649
     1.9731   1.9991   1.9998   2.0095   2.0105   2.0134   2.0285   2.0303
     2.0337   2.0406   2.0427   2.0560   2.0658   2.0743   2.0845   2.0883
     2.1221   2.1227   2.1255   2.1272   2.1292   2.1441   2.1467   2.1516
     2.1520   2.1578   2.1617   2.1636   2.1665   2.1688   2.1715   2.1764
     2.1962   2.2125   2.2258   2.2293   2.2303   2.2340   2.2343   2.2382
     2.2418   2.2442   2.2478   2.2734   2.2775   2.2807   2.2887   2.2907
     2.3020   2.3028   2.3046   2.3081   2.3087   2.3100   2.3148   2.3180
     2.3229   2.3254   2.3295   2.3338   2.3383   2.3405   2.3439   2.3450
     2.3495   2.3503   2.3581   2.3701   2.3765   2.3808   2.3811   2.3825
     2.3833   2.3916   2.3992   2.4064   2.4081   2.4116   2.4119   2.4123
     2.4166   2.4231   2.4263   2.4265   2.4282   2.4302   2.4365   2.4396
     2.4407   2.4494   2.4502   2.4516   2.4523   2.4563   2.4603   2.4686
     2.4744   2.4759   2.4766   2.4837   2.4838   2.4857   2.4887   2.4953
     2.5109   2.5136   2.5152   2.5245   2.5358   2.5376   2.5380   2.5431
     2.5463   2.5534   2.5556   2.5580   2.5647   2.5681   2.5688   2.5742
     2.5757   2.5801   2.5802   2.5813   2.5881   2.5905   2.5933   2.5945
     2.5982   2.5986   2.5986   2.6022   2.6140   2.6144   2.6170   2.6208
     2.6234   2.6352   2.6416   2.6541   2.6550   2.6591   2.6614   2.6638
     2.6672   2.6688   2.6701   2.6731   2.6806   2.6847   2.6933   2.6942
     2.6980   2.7013   2.7149   2.7166   2.7198   2.7199   2.7238   2.7268
     2.7341   2.7430   2.7451   2.7476   2.7591   2.7601   2.7690   2.7718
     2.7725   2.7757   2.7782   2.7810   2.7855   2.7907   2.7938   2.8062
     2.8066   2.8068   2.8072   2.8124   2.8125   2.8148   2.8193   2.8247
     2.8345   2.8371   2.8490   2.8509   2.8554   2.8555   2.8574   2.8595
     2.8601   2.8609   2.8755   2.8759   2.8986   2.9118   2.9197   2.9209
     2.9229   2.9295   2.9326   2.9374   2.9404   2.9479   2.9504   2.9565
     2.9568   2.9613   2.9794   2.9842   2.9975   3.0087   3.0113   3.0220
     3.0238   3.0440   3.0562   3.0566   3.0593   3.0676   3.0691   3.0695
     3.0727   3.0804   3.0815   3.0828   3.0835   3.0852   3.0934   3.1110
     3.1160   3.1171   3.1200   3.1222   3.1308   3.1332   3.1379   3.1401
     3.1428   3.1430   3.1480   3.1631   3.1675   3.1696   3.1761   3.1802
     3.1811   3.1909   3.1947   3.1965   3.1989   3.1993   3.2022   3.2088
     3.2089   3.2124   3.2140   3.2233   3.2250   3.2283   3.2319   3.2337
     3.2373   3.2453   3.2614   3.2629   3.2674   3.2743   3.2793   3.2817
     3.2843   3.2910   3.2927   3.2935   3.3002   3.3127   3.3166   3.3218
     3.3245   3.3245   3.3253   3.3263   3.3277   3.3292   3.3319   3.3334
     3.3366   3.3439   3.3475   3.3507   3.3540   3.3552   3.3607   3.3607
     3.3695   3.3732   3.3733   3.3758   3.3759   3.3779   3.3792   3.3818
     3.4049   3.4061   3.4067   3.4096   3.4138   3.4166   3.4214   3.4219
     3.4277   3.4347   3.4388   3.4390   3.4423   3.4478   3.4484   3.4496
     3.4594   3.4632   3.4634   3.4643   3.4732   3.4749   3.4757   3.4759
     3.4789   3.4825   3.4861   3.4872   3.4962   3.4975   3.5023   3.5063
     3.5091   3.5121   3.5150   3.5151   3.5187   3.5267   3.5320   3.5334
     3.5360   3.5382   3.5390   3.5437   3.5480   3.5538   3.5580   3.5629
     3.5670   3.5690   3.5710   3.5763   3.5765   3.5802   3.5856   3.5869
     3.5908   3.5920   3.5935   3.5972   3.5983   3.6017   3.6018   3.6019
     3.6076   3.6090   3.6211   3.6212   3.6244   3.6247   3.6253   3.6260
     3.6264   3.6298   3.6326   3.6448   3.6469   3.6480   3.6482   3.6595
     3.6620   3.6791   3.6847   3.6908   3.6924   3.6934   3.6962   3.6978
     3.7044   3.7092   3.7116   3.7152   3.7190   3.7201   3.7210   3.7305
     3.7320   3.7327   3.7344   3.7349   3.7437   3.7459   3.7495   3.7504
     3.7593   3.7595   3.7620   3.7657   3.7715   3.7732   3.7744   3.7760
     3.7770   3.7789   3.7853   3.7863   3.7877   3.7904   3.7921   3.7941
     3.8015   3.8051   3.8108   3.8140   3.8189   3.8253   3.8267   3.8281
     3.8358   3.8435   3.8467   3.8493   3.8525   3.8556   3.8557   3.8572
     3.8650   3.8678   3.8682   3.8697   3.8698   3.8736   3.8738   3.8751
     3.8766   3.8936   3.8953   3.9003   3.9021   3.9044   3.9073   3.9165
     3.9194   3.9197   3.9207   3.9226   3.9235   3.9246   3.9261   3.9308
     3.9328   3.9342   3.9346   3.9389   3.9409   3.9488   3.9495   3.9530
     3.9550   3.9553   3.9610   3.9636   3.9648   3.9677   3.9710   3.9758
     3.9784   3.9800   3.9802   3.9836   3.9865   3.9878   3.9917   3.9924
     3.9941   4.0057   4.0057   4.0118   4.0126   4.0154   4.0163   4.0194
     4.0218   4.0262   4.0265   4.0283   4.0391   4.0392   4.0418   4.0425
     4.0522   4.0534   4.0579   4.0645   4.0683   4.0686   4.0697   4.0710
     4.0732   4.0733   4.0764   4.0790   4.0801   4.0858   4.0868   4.0913
     4.0954   4.0969   4.0979   4.0986   4.0993   4.1022   4.1049   4.1080
     4.1097   4.1101   4.1141   4.1142   4.1178   4.1198   4.1203   4.1297
     4.1298   4.1318   4.1337   4.1352   4.1394   4.1400   4.1412   4.1422
     4.1425   4.1500   4.1549   4.1570   4.1587   4.1624   4.1625   4.1639
     4.1645   4.1650   4.1655   4.1657   4.1665   4.1674   4.1695   4.1711
     4.1744   4.1754   4.1755   4.1783   4.1786   4.1812   4.1832   4.1832
     4.1871   4.1890   4.1906   4.1907   4.1936   4.1941   4.1972   4.1988
     4.1995   4.1998   4.2004   4.2008   4.2021   4.2039   4.2051   4.2058
     4.2067   4.2102   4.2141   4.2152   4.2183   4.2185   4.2187   4.2272
     4.2309   4.2317   4.2318   4.2358   4.2369   4.2373   4.2378   4.2388
     4.2443   4.2503   4.2543   4.2549   4.2560   4.2566   4.2579   4.2612
     4.2654   4.2678   4.2701   4.2740   4.2746   4.2780   4.2784   4.2827
     4.2887   4.2941   4.2961   4.2968   4.3003   4.3005   4.3058   4.3062
     4.3145   4.3147   4.3153   4.3185   4.3219   4.3224   4.3224   4.3280
     4.3330   4.3384   4.3395   4.3446   4.3481   4.3505   4.3537   4.3560
     4.3567   4.3579   4.3595   4.3626   4.3673   4.3688   4.3691   4.3696
     4.3704   4.3709   4.3720   4.3790   4.3807   4.3816   4.3828   4.3838
     4.3894   4.3928   4.3938   4.3944   4.3996   4.3996   4.4014   4.4066
     4.4255   4.4266   4.4267   4.4296   4.4297   4.4314   4.4335   4.4344
     4.4421   4.4513   4.4514   4.4526   4.4625   4.4631   4.4661   4.4667
     4.4686   4.4712   4.4782   4.4842   4.4855   4.4907   4.4911   4.4917
     4.4934   4.4956   4.4992   4.5050   4.5084   4.5097   4.5128   4.5189
     4.5198   4.5224   4.5250   4.5282   4.5336   4.5343   4.5355   4.5361
     4.5363   4.5382   4.5407   4.5484   4.5500   4.5560   4.5661   4.5688
     4.5744   4.5770   4.5788   4.5790   4.5864   4.5909   4.5974   4.6062
     4.6078   4.6219   4.6326   4.6326   4.6362   4.6397   4.6450   4.6476
     4.6522   4.6592   4.6621   4.6631   4.6668   4.6804   4.6845   4.6860
     4.6873   4.6917   4.6918   4.6927   4.6975   4.6992   4.6992   4.7037
     4.7085   4.7145   4.7184   4.7189   4.7212   4.7252   4.7256   4.7308
     4.7374   4.7447   4.7457   4.7467   4.7490   4.7515   4.7607   4.7645
     4.7650   4.7728   4.7789   4.7853   4.7974   4.8014   4.8059   4.8103
     4.8113   4.8137   4.8151   4.8177   4.8235   4.8242   4.8255   4.8261
     4.8276   4.8282   4.8289   4.8301   4.8404   4.8423   4.8497   4.8508
     4.8586   4.8595   4.8718   4.8721   4.8723   4.8739   4.8787   4.8800
     4.8810   4.8821   4.8859   4.8884   4.8919   4.8946   4.8962   4.8991
     4.9011   4.9029   4.9066   4.9094   4.9100   4.9107   4.9185   4.9253
     4.9275   4.9299   4.9354   4.9413   4.9464   4.9534   4.9564   4.9586
     4.9597   4.9620   4.9648   4.9712   4.9724   4.9730   4.9751   4.9810
     4.9813   4.9820   4.9837   4.9914   4.9914   4.9931   4.9989   4.9991
     5.0022   5.0065   5.0118   5.0147   5.0166   5.0192   5.0229   5.0249
     5.0294   5.0299   5.0307   5.0341   5.0342   5.0353   5.0373   5.0377
     5.0424   5.0465   5.0566   5.0587   5.0605   5.0607   5.0632   5.0696
     5.0733   5.0784   5.0822   5.0845   5.0866   5.0882   5.0948   5.1088
     5.1095   5.1116   5.1212   5.1224   5.1244   5.1281   5.1293   5.1336
     5.1352   5.1354   5.1385   5.1419   5.1487   5.1513   5.1514   5.1520
     5.1540   5.1553   5.1604   5.1611   5.1618   5.1733   5.1804   5.1817
     5.1854   5.1902   5.1908   5.1909   5.1930   5.1999   5.2011   5.2013
     5.2044   5.2071   5.2160   5.2161   5.2221   5.2236   5.2245   5.2250
     5.2285   5.2293   5.2311   5.2317   5.2317   5.2321   5.2363   5.2382
     5.2386   5.2390   5.2392   5.2410   5.2425   5.2463   5.2497   5.2504
     5.2586   5.2591   5.2606   5.2615   5.2622   5.2646   5.2650   5.2662
     5.2689   5.2704   5.2741   5.2755   5.2769   5.2829   5.2835   5.2855
     5.2858   5.2873   5.2887   5.2963   5.2972   5.2994   5.3120   5.3163
     5.3189   5.3199   5.3220   5.3266   5.3270   5.3274   5.3312   5.3322
     5.3344   5.3372   5.3403   5.3444   5.3447   5.3473   5.3511   5.3522
     5.3538   5.3545   5.3557   5.3643   5.3672   5.3731   5.3752   5.3762
     5.3763   5.3767   5.3790   5.3811   5.3878   5.3898   5.3952   5.3952
     5.3989   5.4029   5.4035   5.4065   5.4065   5.4092   5.4131   5.4141
     5.4168   5.4191   5.4199   5.4241   5.4281   5.4315   5.4318   5.4342
     5.4461   5.4508   5.4526   5.4535   5.4563   5.4577   5.4593   5.4608
     5.4729   5.4743   5.4746   5.4785   5.4793   5.4869   5.4888   5.4896
     5.4950   5.4962   5.5089   5.5110   5.5164   5.5165   5.5186   5.5322
     5.5334   5.5351   5.5360   5.5372   5.5400   5.5425   5.5429   5.5455
     5.5470   5.5473   5.5511   5.5549   5.5555   5.5558   5.5644   5.5680
     5.5725   5.5768   5.5768   5.5772   5.5778   5.5822   5.5938   5.5991
     5.6004   5.6046   5.6062   5.6076   5.6110   5.6202   5.6219   5.6226
     5.6275   5.6321   5.6406   5.6413   5.6453   5.6454   5.6472   5.6479
     5.6571   5.6583   5.6594   5.6607   5.6680   5.6747   5.6751   5.6762
     5.6786   5.6788   5.6858   5.6967   5.6971   5.6972   5.6999   5.6999
     5.7080   5.7094   5.7106   5.7123   5.7249   5.7289   5.7299   5.7303
     5.7308   5.7312   5.7334   5.7430   5.7474   5.7482   5.7484   5.7494
     5.7567   5.7609   5.7622   5.7628   5.7668   5.7693   5.7698   5.7724
     5.7765   5.7779   5.7907   5.7981   5.8002   5.8051   5.8072   5.8079
     5.8106   5.8117   5.8215   5.8243   5.8289   5.8307   5.8329   5.8341
     5.8374   5.8439   5.8487   5.8538   5.8542   5.8548   5.8571   5.8574
     5.8582   5.8600   5.8600   5.8652   5.8655   5.8669   5.8764   5.8825
     5.8891   5.8930   5.8965   5.8974   5.9006   5.9022   5.9035   5.9060
     5.9107   5.9108   5.9167   5.9254   5.9398   5.9407   5.9429   5.9466
     5.9471   5.9490   5.9495   5.9576   5.9581   5.9588   5.9593   5.9600
     5.9633   5.9687   5.9689   5.9770   5.9774   5.9780   5.9808   5.9826
     5.9909   5.9954   5.9956   5.9964   5.9989   6.0095   6.0112   6.0131
     6.0132   6.0142   6.0278   6.0283   6.0361   6.0440   6.0478   6.0517
     6.0529   6.0530   6.0537   6.0564   6.0573   6.0660   6.0669   6.0706
     6.0719   6.0726   6.0731   6.0734   6.0736   6.0742   6.0766   6.0774
     6.0859   6.0890   6.0907   6.0912   6.0947   6.0973   6.0978   6.1010
     6.1010   6.1073   6.1077   6.1084   6.1086   6.1171   6.1181   6.1223
     6.1231   6.1245   6.1293   6.1301   6.1338   6.1394   6.1403   6.1427
     6.1429   6.1450   6.1504   6.1520   6.1530   6.1547   6.1576   6.1623
     6.1654   6.1659   6.1677   6.1686   6.1699   6.1752   6.1763   6.1784
     6.1795   6.1820   6.1842   6.1860   6.1929   6.1961   6.1962   6.1997
     6.2014   6.2058   6.2068   6.2094   6.2138   6.2139   6.2143   6.2189
     6.2199   6.2209   6.2213   6.2258   6.2260   6.2315   6.2334   6.2339
     6.2347   6.2350   6.2354   6.2390   6.2468   6.2485   6.2529   6.2578
     6.2597   6.2598   6.2636   6.2648   6.2657   6.2671   6.2674   6.2731
     6.2743   6.2767   6.2791   6.2827   6.2827   6.2839   6.2913   6.2932
     6.2939   6.2945   6.2976   6.3037   6.3072   6.3139   6.3172   6.3192
     6.3229   6.3279   6.3286   6.3310   6.3338   6.3362   6.3363   6.3375
     6.3454   6.3460   6.3460   6.3461   6.3474   6.3477   6.3497   6.3589
     6.3609   6.3622   6.3648   6.3651   6.3701   6.3716   6.3745   6.3752
     6.3762   6.3764   6.3773   6.3777   6.3778   6.3788   6.3796   6.3833
     6.3851   6.3865   6.3880   6.3904   6.3922   6.3926   6.3943   6.3957
     6.3963   6.3980   6.3989   6.4044   6.4056   6.4092   6.4092   6.4164
     6.4186   6.4244   6.4252   6.4286   6.4318   6.4325   6.4346   6.4347
     6.4386   6.4425   6.4454   6.4485   6.4497   6.4516   6.4527   6.4563
     6.4633   6.4651   6.4678   6.4700   6.4743   6.4780   6.4780   6.4784
     6.4865   6.4868   6.5016   6.5117   6.5126   6.5161   6.5174   6.5194
     6.5290   6.5345   6.5364   6.5460   6.5466   6.5467   6.5473   6.5482
     6.5484   6.5486   6.5508   6.5608   6.5646   6.5652   6.5714   6.5753
     6.5809   6.5846   6.5849   6.5857   6.5875   6.5881   6.5898   6.5919
     6.5923   6.5940   6.5959   6.5992   6.5992   6.5997   6.6011   6.6021
     6.6043   6.6049   6.6059   6.6086   6.6333   6.6347   6.6371   6.6373
     6.6383   6.6526   6.6627   6.6689   6.6705   6.6818   6.6917   6.6969
     6.6971   6.6975   6.7170   6.7171   6.7193   6.7249   6.7250   6.7285
     6.7398   6.7464   6.7567   6.7607   6.7855   6.7993   6.8159   6.8259
     6.8275   6.8338   6.8531   6.8684   6.8764   6.8953   6.8964   6.8974
     6.9057   6.9064   6.9117   6.9126   6.9130   6.9341   6.9558   6.9979
     7.0626   7.0630   7.0667   7.0799   7.1345   7.1469   7.2576   7.2656
     7.3380   7.3797   7.4071   7.4968   7.5254   7.5266   7.5292   7.5833
     7.6143   7.6221   7.6393   7.6698   7.6862   7.6912   7.7173   7.7396
     7.7970   7.7988   7.8003   7.8061   7.8154   7.8494   7.8510   7.8521
     7.8662   7.8703   7.8920   8.0011   8.0289   8.0376   8.0477   8.0545
     8.0608   8.0663   8.0795   8.1133   8.1462   8.1925   8.1973   8.2136
     8.2409   8.2648   8.2770   8.2980   8.3294   8.3494   8.3596   8.3615
     8.4062   8.4064   8.4153   8.4200   8.4214   8.4240   8.4534   8.4654
     8.5150   8.5164   8.5507   8.5855   8.5960   8.6486   8.6488   8.6701
     8.6836   8.7137   8.7455   8.7752   8.7833   8.7882   8.7921   8.8061
     8.8540   8.9185   8.9272   8.9281   8.9468   8.9508   8.9665   8.9784
     9.0091   9.0220   9.0403   9.0559   9.0637   9.1042   9.1285   9.1464
     9.1965   9.2262   9.2312   9.2505   9.2564   9.2728   9.2777   9.2891
     9.2968   9.2985   9.3120   9.3146   9.3531   9.3897   9.4610   9.4963
     9.5702   9.5762   9.5885   9.6441   9.6612   9.6860   9.6973   9.7012
     9.7175   9.7303   9.7558   9.7599   9.7804   9.7877   9.8241   9.8306
     9.8605   9.8688   9.8718   9.8789   9.9042   9.9109   9.9361   9.9776
     9.9943   9.9979  10.0040  10.0744  10.0744  10.0901  10.2000  10.2071
    10.2244  10.2500  10.2529  10.2644  10.2982  10.3143  10.3642  10.3937
    10.4599  10.4662  10.5294  10.5446  10.5521  10.5645  10.5919  10.6435
    10.6511  10.6742  10.6809  10.7058  10.7284  10.7564  10.7872  10.7897
    10.8569  10.8656  10.8917  10.9349  10.9389  10.9821  10.9854  11.0332
    11.0498  11.0637  11.0766  11.0861  11.1309  11.1349  11.1450  11.1945
    11.2182  11.2268  11.2293  11.2359  11.2425  11.2591  11.2644  11.2742
    11.2823  11.2965  11.3281  11.3376  11.3420  11.3824  11.3897  11.4437
    11.4510  11.4668  11.4824  11.5488  11.5722  11.6063  11.6597  11.6621
    11.6655  11.7217  11.7284  11.7566  11.7792  11.8063  11.8212  11.8309
    11.8565  11.8826  11.8985  11.9043  11.9313  11.9531  11.9858  12.0008
    12.0116  12.0480  12.0589  12.0633  12.0968  12.1034  12.1128  12.1262
    12.2161  12.2255  12.2557  12.2787  12.3036  12.3151  12.3200  12.3381
    12.3471  12.3562  12.3721  12.3801  12.4095  12.4490  12.4558  12.5246
    12.5406  12.5510  12.5924  12.6019  12.6091  12.6161  12.6199  12.6220
    12.6452  12.6534  12.7047  12.7299  12.7414  12.7435  12.7651  12.7791
    12.7911  12.8219  12.8467  12.8497  12.8734  12.8749  12.8884  12.8936
    12.9050  12.9365  13.0226  13.0227  13.0523  13.0727  13.0812  13.0937
    13.0962  13.1006  13.1580  13.1679  13.1797  13.2052  13.2153  13.2279
    13.2446  13.2494  13.2598  13.2840  13.2843  13.2953  13.3196  13.3234
    13.3388  13.3791  13.3837  13.4406  13.4464  13.4626  13.4632  13.4641
    13.4685  13.4686  13.4719  13.4916  13.5043  13.5236  13.5276  13.5779
    13.6557  13.6623  13.6762  13.6824  13.6885  13.7254  13.7602  13.7660
    13.8101  13.8189  13.8227  13.8265  13.8359  13.8433  13.8831  13.8857
    13.8903  13.8961  13.9144  13.9334  13.9337  13.9393  13.9526  13.9580
    13.9609  13.9952  13.9973  14.0024  14.0079  14.0287  14.0493  14.0699
    14.0904  14.1010  14.1118  14.1281  14.1448  14.1635  14.1706  14.1717
    14.2010  14.2043  14.2311  14.2434  14.2716  14.2789  14.2824  14.3242
    14.3393  14.3722  14.3738  14.4021  14.4036  14.4103  14.4230  14.4233
    14.4285  14.5058  14.5559  14.5574  14.6009

          k = 0.0833-0.2887 0.0000 (220268 PWs)   bands (ev):

    -0.7121  -0.7121  -0.3721  -0.3721   0.1227   0.1227   0.1367   0.1367
     0.3332   0.3332   0.4500   0.4500   0.6379   0.6379   0.6973   0.6973
     0.6988   0.6988   0.9046   0.9046   0.9788   0.9788   1.0132   1.0132
     1.0803   1.0803   1.2202   1.2202   1.2411   1.2411   1.2640   1.2640
     1.3073   1.3073   1.3800   1.3800   1.4288   1.4288   1.4719   1.4719
     1.5338   1.5338   1.5450   1.5450   1.6002   1.6002   1.6053   1.6053
     1.6100   1.6100   1.6498   1.6498   1.6505   1.6505   1.6609   1.6609
     1.6966   1.6966   1.7608   1.7608   1.7919   1.7919   1.8465   1.8465
     1.8612   1.8612   1.8865   1.8865   1.8972   1.8972   1.9035   1.9035
     1.9192   1.9192   1.9251   1.9251   1.9444   1.9444   1.9944   1.9944
     2.0365   2.0365   2.0411   2.0411   2.0573   2.0573   2.0651   2.0651
     2.0786   2.0786   2.0842   2.0842   2.0853   2.0853   2.0993   2.0993
     2.1139   2.1139   2.1520   2.1520   2.1679   2.1679   2.1709   2.1709
     2.1738   2.1738   2.1754   2.1754   2.1759   2.1759   2.1996   2.1996
     2.2057   2.2057   2.2133   2.2133   2.2504   2.2504   2.2537   2.2537
     2.2539   2.2539   2.2573   2.2573   2.2715   2.2715   2.2722   2.2722
     2.2769   2.2769   2.2863   2.2863   2.2877   2.2877   2.2884   2.2884
     2.2974   2.2974   2.3061   2.3061   2.3123   2.3123   2.3237   2.3237
     2.3272   2.3272   2.3384   2.3384   2.3591   2.3591   2.3593   2.3593
     2.3612   2.3612   2.3625   2.3625   2.3683   2.3683   2.4027   2.4027
     2.4145   2.4145   2.4228   2.4228   2.4253   2.4253   2.4335   2.4335
     2.4503   2.4503   2.4614   2.4614   2.4685   2.4685   2.4714   2.4714
     2.4807   2.4807   2.4860   2.4860   2.4947   2.4947   2.4996   2.4996
     2.4997   2.4997   2.5020   2.5020   2.5088   2.5088   2.5181   2.5181
     2.5195   2.5195   2.5440   2.5440   2.5455   2.5455   2.5548   2.5548
     2.5682   2.5682   2.5732   2.5732   2.5878   2.5878   2.5949   2.5949
     2.5973   2.5973   2.6220   2.6220   2.6430   2.6430   2.6489   2.6489
     2.6594   2.6594   2.6746   2.6746   2.6771   2.6771   2.6811   2.6811
     2.6926   2.6926   2.6944   2.6944   2.6954   2.6954   2.7019   2.7019
     2.7022   2.7022   2.7049   2.7049   2.7113   2.7113   2.7227   2.7227
     2.7231   2.7232   2.7433   2.7433   2.7599   2.7599   2.7748   2.7748
     2.7762   2.7762   2.7801   2.7801   2.7973   2.7973   2.8035   2.8035
     2.8074   2.8074   2.8115   2.8115   2.8196   2.8196   2.8325   2.8325
     2.8377   2.8377   2.8538   2.8538   2.8596   2.8596   2.8696   2.8696
     2.8705   2.8705   2.8873   2.8873   2.8925   2.8925   2.9247   2.9247
     2.9299   2.9299   2.9322   2.9322   2.9383   2.9383   2.9463   2.9463
     2.9789   2.9789   2.9961   2.9961   3.0052   3.0052   3.0105   3.0105
     3.0142   3.0142   3.0356   3.0356   3.0410   3.0410   3.0691   3.0691
     3.0796   3.0796   3.0823   3.0823   3.0827   3.0827   3.0844   3.0844
     3.0889   3.0889   3.1044   3.1044   3.1258   3.1258   3.1303   3.1303
     3.1369   3.1369   3.1416   3.1416   3.1603   3.1603   3.1627   3.1627
     3.1783   3.1783   3.1825   3.1825   3.2006   3.2006   3.2246   3.2246
     3.2320   3.2320   3.2377   3.2377   3.2393   3.2393   3.2421   3.2421
     3.2487   3.2487   3.2676   3.2676   3.2682   3.2682   3.2740   3.2740
     3.2741   3.2741   3.2746   3.2746   3.2915   3.2915   3.3072   3.3072
     3.3116   3.3116   3.3143   3.3143   3.3282   3.3282   3.3343   3.3343
     3.3392   3.3392   3.3401   3.3401   3.3500   3.3500   3.3540   3.3540
     3.3603   3.3603   3.3674   3.3674   3.3744   3.3744   3.3839   3.3839
     3.3846   3.3846   3.4096   3.4096   3.4119   3.4119   3.4218   3.4218
     3.4238   3.4238   3.4348   3.4348   3.4395   3.4395   3.4519   3.4519
     3.4608   3.4608   3.4617   3.4617   3.4699   3.4699   3.4764   3.4764
     3.4793   3.4793   3.4837   3.4837   3.4959   3.4959   3.5018   3.5018
     3.5087   3.5087   3.5156   3.5156   3.5242   3.5242   3.5316   3.5316
     3.5336   3.5336   3.5473   3.5473   3.5494   3.5494   3.5512   3.5512
     3.5556   3.5556   3.5560   3.5560   3.5684   3.5684   3.5843   3.5843
     3.5877   3.5877   3.5887   3.5887   3.6151   3.6151   3.6160   3.6160
     3.6199   3.6199   3.6221   3.6221   3.6230   3.6230   3.6273   3.6273
     3.6412   3.6412   3.6486   3.6486   3.6611   3.6611   3.6750   3.6750
     3.6779   3.6779   3.6854   3.6854   3.6859   3.6859   3.6914   3.6914
     3.6998   3.6998   3.7020   3.7020   3.7078   3.7078   3.7081   3.7081
     3.7385   3.7385   3.7496   3.7496   3.7511   3.7511   3.7627   3.7627
     3.7649   3.7649   3.7670   3.7670   3.7707   3.7707   3.7707   3.7707
     3.7794   3.7794   3.7863   3.7863   3.7915   3.7915   3.8157   3.8157
     3.8159   3.8159   3.8362   3.8362   3.8387   3.8387   3.8465   3.8465
     3.8507   3.8507   3.8536   3.8536   3.8623   3.8623   3.8648   3.8648
     3.8701   3.8701   3.8763   3.8763   3.8922   3.8922   3.8974   3.8974
     3.9038   3.9038   3.9096   3.9096   3.9112   3.9112   3.9126   3.9126
     3.9149   3.9149   3.9279   3.9279   3.9387   3.9387   3.9443   3.9443
     3.9444   3.9444   3.9451   3.9451   3.9453   3.9453   3.9480   3.9480
     3.9551   3.9551   3.9590   3.9590   3.9655   3.9655   3.9764   3.9764
     3.9776   3.9776   3.9821   3.9821   3.9937   3.9937   3.9947   3.9947
     3.9988   3.9988   4.0007   4.0007   4.0082   4.0082   4.0220   4.0220
     4.0220   4.0220   4.0248   4.0248   4.0252   4.0252   4.0266   4.0266
     4.0548   4.0548   4.0561   4.0561   4.0629   4.0630   4.0670   4.0670
     4.0723   4.0723   4.0728   4.0728   4.0736   4.0736   4.0746   4.0746
     4.0819   4.0819   4.0850   4.0850   4.1083   4.1083   4.1114   4.1114
     4.1157   4.1157   4.1158   4.1158   4.1223   4.1223   4.1352   4.1352
     4.1397   4.1397   4.1401   4.1401   4.1455   4.1455   4.1463   4.1463
     4.1463   4.1463   4.1479   4.1479   4.1517   4.1517   4.1608   4.1608
     4.1688   4.1688   4.1738   4.1738   4.1762   4.1762   4.1779   4.1779
     4.1812   4.1812   4.1853   4.1853   4.1873   4.1873   4.1914   4.1914
     4.1946   4.1946   4.1974   4.1974   4.1981   4.1981   4.2031   4.2031
     4.2063   4.2063   4.2131   4.2131   4.2165   4.2165   4.2188   4.2188
     4.2220   4.2220   4.2229   4.2229   4.2237   4.2237   4.2261   4.2261
     4.2261   4.2261   4.2290   4.2290   4.2318   4.2318   4.2327   4.2327
     4.2458   4.2458   4.2464   4.2464   4.2669   4.2669   4.2687   4.2687
     4.2716   4.2716   4.2764   4.2764   4.2777   4.2777   4.2826   4.2826
     4.2880   4.2880   4.2984   4.2984   4.2987   4.2987   4.3034   4.3034
     4.3078   4.3078   4.3106   4.3106   4.3179   4.3179   4.3229   4.3229
     4.3271   4.3271   4.3305   4.3305   4.3446   4.3446   4.3491   4.3491
     4.3507   4.3507   4.3604   4.3604   4.3689   4.3689   4.3700   4.3700
     4.3783   4.3783   4.3805   4.3805   4.3805   4.3805   4.3887   4.3887
     4.3986   4.3986   4.4044   4.4044   4.4190   4.4190   4.4232   4.4232
     4.4239   4.4239   4.4321   4.4321   4.4332   4.4332   4.4538   4.4538
     4.4576   4.4576   4.4610   4.4610   4.4624   4.4624   4.4643   4.4643
     4.4659   4.4659   4.4719   4.4719   4.4882   4.4882   4.4932   4.4932
     4.4935   4.4935   4.4946   4.4946   4.5053   4.5053   4.5212   4.5212
     4.5234   4.5234   4.5335   4.5335   4.5395   4.5395   4.5488   4.5488
     4.5569   4.5569   4.5756   4.5756   4.5778   4.5778   4.5802   4.5802
     4.5838   4.5838   4.5906   4.5906   4.5985   4.5985   4.5986   4.5986
     4.6014   4.6014   4.6126   4.6126   4.6137   4.6137   4.6308   4.6308
     4.6409   4.6409   4.6535   4.6535   4.6546   4.6546   4.6600   4.6600
     4.6646   4.6646   4.6705   4.6705   4.6770   4.6770   4.6839   4.6839
     4.6893   4.6893   4.6985   4.6985   4.7063   4.7063   4.7064   4.7064
     4.7097   4.7097   4.7170   4.7170   4.7194   4.7194   4.7419   4.7419
     4.7478   4.7478   4.7590   4.7590   4.7698   4.7698   4.7758   4.7758
     4.7951   4.7951   4.8046   4.8046   4.8209   4.8209   4.8263   4.8263
     4.8297   4.8297   4.8332   4.8332   4.8451   4.8451   4.8508   4.8508
     4.8596   4.8596   4.8598   4.8598   4.8663   4.8663   4.8665   4.8665
     4.8749   4.8749   4.8758   4.8758   4.8960   4.8960   4.8995   4.8995
     4.9086   4.9086   4.9185   4.9185   4.9257   4.9257   4.9266   4.9266
     4.9276   4.9276   4.9464   4.9464   4.9468   4.9468   4.9486   4.9486
     4.9633   4.9633   4.9656   4.9656   4.9663   4.9663   4.9751   4.9751
     4.9819   4.9819   4.9850   4.9850   4.9865   4.9865   4.9893   4.9893
     4.9925   4.9925   4.9994   4.9994   5.0061   5.0061   5.0080   5.0080
     5.0121   5.0121   5.0273   5.0273   5.0293   5.0293   5.0355   5.0355
     5.0419   5.0419   5.0479   5.0479   5.0520   5.0520   5.0659   5.0659
     5.0720   5.0720   5.0840   5.0840   5.0935   5.0935   5.0984   5.0984
     5.0993   5.0993   5.1151   5.1151   5.1158   5.1158   5.1168   5.1168
     5.1296   5.1296   5.1304   5.1304   5.1356   5.1356   5.1464   5.1464
     5.1482   5.1482   5.1489   5.1489   5.1584   5.1584   5.1718   5.1718
     5.1826   5.1826   5.1943   5.1943   5.1953   5.1953   5.2016   5.2016
     5.2024   5.2024   5.2107   5.2107   5.2201   5.2201   5.2237   5.2237
     5.2265   5.2265   5.2341   5.2341   5.2386   5.2386   5.2419   5.2419
     5.2458   5.2458   5.2517   5.2517   5.2524   5.2524   5.2545   5.2545
     5.2574   5.2574   5.2610   5.2610   5.2795   5.2795   5.2835   5.2835
     5.2913   5.2913   5.3125   5.3125   5.3205   5.3205   5.3213   5.3213
     5.3244   5.3244   5.3284   5.3284   5.3304   5.3304   5.3402   5.3402
     5.3461   5.3461   5.3468   5.3468   5.3470   5.3470   5.3554   5.3554
     5.3597   5.3597   5.3615   5.3615   5.3710   5.3710   5.3783   5.3783
     5.3871   5.3871   5.3929   5.3929   5.3969   5.3969   5.4084   5.4084
     5.4100   5.4100   5.4124   5.4124   5.4193   5.4193   5.4259   5.4259
     5.4270   5.4270   5.4288   5.4288   5.4289   5.4289   5.4372   5.4372
     5.4376   5.4376   5.4491   5.4491   5.4492   5.4492   5.4541   5.4541
     5.4707   5.4707   5.4773   5.4773   5.4806   5.4806   5.4823   5.4823
     5.4942   5.4942   5.4959   5.4959   5.4978   5.4978   5.5079   5.5079
     5.5094   5.5094   5.5098   5.5098   5.5211   5.5211   5.5266   5.5266
     5.5357   5.5357   5.5379   5.5379   5.5459   5.5459   5.5501   5.5501
     5.5524   5.5524   5.5536   5.5536   5.5747   5.5747   5.5793   5.5793
     5.5815   5.5815   5.5848   5.5848   5.5887   5.5887   5.5930   5.5930
     5.5984   5.5984   5.6044   5.6044   5.6072   5.6072   5.6083   5.6083
     5.6129   5.6129   5.6219   5.6219   5.6320   5.6320   5.6326   5.6326
     5.6368   5.6368   5.6381   5.6381   5.6433   5.6433   5.6511   5.6511
     5.6652   5.6652   5.6678   5.6678   5.6711   5.6711   5.6744   5.6744
     5.6913   5.6913   5.6938   5.6938   5.6944   5.6944   5.7056   5.7056
     5.7143   5.7143   5.7216   5.7216   5.7284   5.7284   5.7295   5.7295
     5.7357   5.7357   5.7452   5.7452   5.7457   5.7457   5.7676   5.7676
     5.7683   5.7683   5.7723   5.7723   5.7738   5.7738   5.7740   5.7740
     5.7857   5.7857   5.7900   5.7900   5.7915   5.7915   5.7970   5.7970
     5.7997   5.7997   5.8192   5.8192   5.8219   5.8219   5.8345   5.8345
     5.8359   5.8359   5.8588   5.8588   5.8641   5.8641   5.8690   5.8690
     5.8719   5.8719   5.8780   5.8780   5.8976   5.8976   5.9035   5.9035
     5.9071   5.9071   5.9140   5.9140   5.9141   5.9141   5.9257   5.9257
     5.9281   5.9281   5.9433   5.9433   5.9438   5.9438   5.9466   5.9466
     5.9478   5.9478   5.9481   5.9481   5.9558   5.9558   5.9722   5.9722
     5.9750   5.9750   5.9824   5.9824   5.9824   5.9824   5.9825   5.9825
     5.9842   5.9842   6.0104   6.0104   6.0166   6.0166   6.0199   6.0199
     6.0236   6.0236   6.0247   6.0247   6.0277   6.0277   6.0298   6.0298
     6.0328   6.0328   6.0378   6.0378   6.0595   6.0595   6.0715   6.0715
     6.0921   6.0921   6.1041   6.1041   6.1083   6.1083   6.1092   6.1092
     6.1132   6.1132   6.1183   6.1183   6.1241   6.1241   6.1253   6.1253
     6.1271   6.1271   6.1347   6.1347   6.1455   6.1455   6.1466   6.1466
     6.1504   6.1504   6.1564   6.1564   6.1593   6.1593   6.1600   6.1600
     6.1624   6.1624   6.1742   6.1742   6.1766   6.1766   6.1903   6.1903
     6.1937   6.1937   6.2050   6.2050   6.2051   6.2051   6.2052   6.2052
     6.2082   6.2082   6.2111   6.2111   6.2146   6.2146   6.2163   6.2163
     6.2237   6.2237   6.2278   6.2278   6.2345   6.2345   6.2362   6.2362
     6.2504   6.2504   6.2539   6.2539   6.2564   6.2564   6.2600   6.2600
     6.2716   6.2716   6.2751   6.2751   6.2757   6.2757   6.2758   6.2758
     6.2817   6.2817   6.2832   6.2832   6.2865   6.2865   6.2938   6.2938
     6.2970   6.2970   6.2972   6.2972   6.3005   6.3005   6.3010   6.3010
     6.3144   6.3144   6.3144   6.3144   6.3196   6.3196   6.3211   6.3211
     6.3224   6.3224   6.3273   6.3273   6.3342   6.3342   6.3426   6.3426
     6.3544   6.3544   6.3572   6.3572   6.3622   6.3622   6.3648   6.3648
     6.3663   6.3663   6.3761   6.3761   6.3789   6.3789   6.3839   6.3839
     6.3892   6.3892   6.3895   6.3895   6.3907   6.3907   6.3930   6.3930
     6.3947   6.3947   6.4002   6.4002   6.4003   6.4003   6.4265   6.4265
     6.4355   6.4355   6.4471   6.4471   6.4493   6.4493   6.4537   6.4537
     6.4540   6.4540   6.4583   6.4583   6.4601   6.4601   6.4615   6.4615
     6.4641   6.4641   6.4654   6.4654   6.4810   6.4810   6.4873   6.4873
     6.4892   6.4892   6.4933   6.4933   6.4984   6.4984   6.5050   6.5050
     6.5169   6.5169   6.5402   6.5402   6.5418   6.5418   6.5432   6.5432
     6.5433   6.5433   6.5492   6.5492   6.5641   6.5641   6.5646   6.5646
     6.5678   6.5678   6.5870   6.5870   6.5886   6.5886   6.5973   6.5973
     6.5995   6.5995   6.5995   6.5995   6.6024   6.6024   6.6024   6.6024
     6.6070   6.6070   6.6191   6.6191   6.6267   6.6267   6.6273   6.6273
     6.6299   6.6299   6.6426   6.6426   6.7175   6.7175   6.7185   6.7185
     6.7254   6.7254   6.7426   6.7426   6.7447   6.7447   6.7964   6.7964
     6.8301   6.8301   6.8480   6.8480   6.8542   6.8542   6.8748   6.8748
     6.8775   6.8775   6.9108   6.9108   6.9109   6.9109   6.9661   6.9661
     6.9993   6.9993   7.0641   7.0641   7.0847   7.0847   7.1195   7.1195
     7.1489   7.1489   7.2420   7.2420   7.3240   7.3240   7.3245   7.3245
     7.3415   7.3415   7.4301   7.4301   7.4630   7.4630   7.4847   7.4847
     7.5135   7.5135   7.5677   7.5677   7.5805   7.5805   7.6163   7.6163
     7.6595   7.6595   7.7312   7.7312   7.7838   7.7838   7.7876   7.7876
     7.7931   7.7931   7.8221   7.8221   7.9866   7.9866   8.0153   8.0153
     8.0369   8.0369   8.0831   8.0831   8.1140   8.1140   8.2065   8.2065
     8.2147   8.2147   8.2357   8.2357   8.2561   8.2561   8.2942   8.2942
     8.2999   8.2999   8.4393   8.4393   8.4530   8.4530   8.4792   8.4792
     8.5082   8.5082   8.5499   8.5499   8.6561   8.6561   8.6806   8.6806
     8.7582   8.7582   8.7940   8.7940   8.7954   8.7954   8.8002   8.8002
     8.9361   8.9361   8.9603   8.9603   9.0338   9.0338   9.0369   9.0369
     9.0778   9.0778   9.0922   9.0922   9.1198   9.1198   9.1200   9.1200
     9.1524   9.1524   9.1737   9.1737   9.2183   9.2183   9.2661   9.2661
     9.2793   9.2793   9.4277   9.4277   9.4350   9.4350   9.4445   9.4445
     9.4481   9.4481   9.4830   9.4830   9.6589   9.6589   9.7075   9.7075
     9.7081   9.7081   9.7105   9.7105   9.7678   9.7678   9.7773   9.7773
     9.8411   9.8411   9.9048   9.9048   9.9557   9.9557   9.9826   9.9826
    10.0122  10.0122  10.0862  10.0862  10.1378  10.1378  10.1754  10.1754
    10.2303  10.2303  10.3585  10.3585  10.4072  10.4072  10.4494  10.4494
    10.4915  10.4915  10.5418  10.5418  10.6180  10.6180  10.6336  10.6336
    10.6516  10.6516  10.6523  10.6523  10.6635  10.6635  10.7170  10.7170
    10.9128  10.9128  10.9775  10.9775  11.0145  11.0145  11.0274  11.0274
    11.1102  11.1102  11.1341  11.1341  11.2091  11.2091  11.2248  11.2248
    11.2605  11.2605  11.3006  11.3006  11.3089  11.3089  11.3203  11.3203
    11.3340  11.3340  11.3796  11.3796  11.4415  11.4415  11.4990  11.4990
    11.5259  11.5259  11.5991  11.5991  11.6092  11.6092  11.6359  11.6359
    11.6929  11.6929  11.7603  11.7603  11.7671  11.7671  11.7724  11.7724
    11.8430  11.8430  11.8434  11.8434  11.8741  11.8741  12.0152  12.0152
    12.0288  12.0288  12.0817  12.0817  12.0885  12.0885  12.0927  12.0927
    12.0992  12.0992  12.1876  12.1876  12.2303  12.2303  12.2589  12.2589
    12.2954  12.2954  12.3868  12.3868  12.4261  12.4261  12.4476  12.4476
    12.4923  12.4923  12.5342  12.5342  12.5529  12.5529  12.5788  12.5788
    12.5809  12.5809  12.6147  12.6147  12.6668  12.6668  12.7281  12.7281
    12.7651  12.7651  12.7787  12.7787  12.8332  12.8332  12.9113  12.9113
    12.9157  12.9157  12.9251  12.9251  12.9506  12.9506  13.0059  13.0059
    13.0221  13.0221  13.1168  13.1168  13.1307  13.1307  13.1930  13.1930
    13.2289  13.2289  13.2743  13.2743  13.2777  13.2777  13.3043  13.3043
    13.3266  13.3266  13.4002  13.4002  13.4214  13.4214  13.4308  13.4308
    13.4392  13.4392  13.4528  13.4528  13.5594  13.5594  13.6145  13.6146
    13.6183  13.6183  13.6329  13.6329  13.6492  13.6492  13.6770  13.6770
    13.7157  13.7157  13.7435  13.7435  13.7515  13.7515  13.7995  13.7995
    13.8666  13.8668  13.8985  13.8985  14.0078  14.0078  14.0116  14.0116
    14.0390  14.0390  14.0518  14.0518  14.1044  14.1044  14.1162  14.1162
    14.1445  14.1445  14.1905  14.1905  14.2001  14.2001  14.2198  14.2198
    14.2505  14.2505  14.2547  14.2547  14.3448  14.3448  14.3937  14.3937
    14.4560  14.4563  14.4682  14.4682  14.5068  14.5068  14.5084  14.5084
    14.6143  14.6143  14.6263  14.6316  14.6316

          k = 0.2500 0.0962 0.0000 (220225 PWs)   bands (ev):

    -0.7372  -0.4405  -0.3966  -0.1548  -0.1060  -0.0846   0.0988   0.1714
     0.1799   0.2399   0.3815   0.4366   0.4920   0.6178   0.6470   0.6743
     0.7140   0.7345   0.9016   0.9458   0.9506   1.0348   1.0431   1.1486
     1.1544   1.1652   1.1979   1.2038   1.2656   1.2720   1.2809   1.2944
     1.3082   1.3873   1.3917   1.4700   1.4778   1.4964   1.5129   1.5597
     1.5750   1.5861   1.6012   1.6172   1.6297   1.6348   1.6491   1.6504
     1.6525   1.6688   1.6768   1.6800   1.7012   1.7087   1.7201   1.7421
     1.7712   1.7733   1.7828   1.7842   1.7874   1.7998   1.8188   1.8191
     1.8490   1.8669   1.8750   1.8783   1.8936   1.8997   1.9018   1.9139
     1.9188   1.9254   1.9258   1.9641   1.9817   1.9844   2.0013   2.0015
     2.0123   2.0129   2.0166   2.0199   2.0351   2.0357   2.0456   2.0479
     2.0639   2.0689   2.0731   2.0744   2.0792   2.0924   2.1040   2.1065
     2.1074   2.1110   2.1175   2.1239   2.1251   2.1308   2.1391   2.1459
     2.1482   2.1538   2.1539   2.1547   2.1585   2.1597   2.1606   2.1633
     2.1652   2.1708   2.1812   2.1913   2.1931   2.2024   2.2042   2.2086
     2.2133   2.2157   2.2210   2.2211   2.2288   2.2301   2.2415   2.2444
     2.2484   2.2684   2.2786   2.2802   2.2804   2.2811   2.2835   2.2861
     2.2884   2.2890   2.2921   2.2943   2.2968   2.3010   2.3048   2.3110
     2.3163   2.3279   2.3414   2.3424   2.3425   2.3457   2.3517   2.3517
     2.3562   2.3624   2.3668   2.3731   2.3736   2.3864   2.3876   2.3886
     2.3889   2.4043   2.4082   2.4083   2.4122   2.4142   2.4178   2.4278
     2.4323   2.4339   2.4362   2.4404   2.4492   2.4520   2.4555   2.4581
     2.4591   2.4700   2.4725   2.4734   2.4803   2.4816   2.4924   2.4930
     2.4967   2.5015   2.5061   2.5077   2.5109   2.5226   2.5233   2.5340
     2.5378   2.5388   2.5418   2.5466   2.5473   2.5508   2.5720   2.5781
     2.5817   2.5874   2.5897   2.5897   2.5901   2.5907   2.5948   2.5971
     2.5972   2.5987   2.6016   2.6202   2.6242   2.6296   2.6333   2.6379
     2.6393   2.6409   2.6479   2.6485   2.6627   2.6632   2.6633   2.6679
     2.6757   2.6764   2.6786   2.6849   2.6855   2.6938   2.6956   2.7063
     2.7098   2.7123   2.7158   2.7201   2.7210   2.7223   2.7239   2.7239
     2.7324   2.7330   2.7333   2.7397   2.7507   2.7517   2.7524   2.7532
     2.7624   2.7626   2.7773   2.7860   2.7889   2.7897   2.7929   2.7935
     2.7938   2.8031   2.8040   2.8118   2.8251   2.8261   2.8307   2.8313
     2.8323   2.8481   2.8610   2.8638   2.8652   2.8652   2.8660   2.8673
     2.8787   2.8858   2.8937   2.8953   2.8980   2.8997   2.9006   2.9054
     2.9061   2.9155   2.9192   2.9193   2.9230   2.9236   2.9331   2.9372
     2.9483   2.9516   2.9523   2.9698   2.9765   2.9845   2.9914   2.9917
     2.9946   3.0026   3.0087   3.0186   3.0231   3.0233   3.0251   3.0295
     3.0344   3.0441   3.0607   3.0640   3.0732   3.0745   3.0752   3.0848
     3.0916   3.1065   3.1099   3.1113   3.1114   3.1140   3.1231   3.1270
     3.1437   3.1447   3.1539   3.1627   3.1681   3.1692   3.1694   3.1708
     3.1761   3.1772   3.1787   3.1791   3.1880   3.1888   3.1942   3.1956
     3.1960   3.2073   3.2210   3.2221   3.2239   3.2249   3.2295   3.2307
     3.2328   3.2427   3.2436   3.2544   3.2577   3.2595   3.2598   3.2739
     3.2838   3.2873   3.2934   3.2959   3.2960   3.2991   3.2994   3.3046
     3.3060   3.3062   3.3099   3.3187   3.3240   3.3244   3.3244   3.3289
     3.3291   3.3295   3.3324   3.3383   3.3393   3.3467   3.3480   3.3481
     3.3514   3.3578   3.3597   3.3597   3.3629   3.3674   3.3721   3.3796
     3.3834   3.3859   3.3859   3.3884   3.3902   3.3983   3.4080   3.4114
     3.4116   3.4133   3.4145   3.4166   3.4367   3.4376   3.4377   3.4426
     3.4469   3.4472   3.4516   3.4520   3.4593   3.4624   3.4694   3.4703
     3.4711   3.4731   3.4783   3.4805   3.4855   3.4857   3.4892   3.4912
     3.5042   3.5049   3.5053   3.5071   3.5224   3.5224   3.5241   3.5313
     3.5335   3.5342   3.5375   3.5395   3.5487   3.5527   3.5529   3.5531
     3.5593   3.5614   3.5626   3.5648   3.5679   3.5777   3.5865   3.5890
     3.5924   3.5963   3.5971   3.5983   3.5998   3.6023   3.6086   3.6090
     3.6104   3.6110   3.6135   3.6173   3.6175   3.6215   3.6244   3.6291
     3.6307   3.6442   3.6497   3.6514   3.6546   3.6588   3.6613   3.6688
     3.6703   3.6738   3.6738   3.6839   3.6918   3.6933   3.6971   3.7052
     3.7060   3.7102   3.7139   3.7155   3.7162   3.7176   3.7215   3.7228
     3.7228   3.7247   3.7296   3.7351   3.7370   3.7468   3.7480   3.7593
     3.7635   3.7662   3.7745   3.7751   3.7777   3.7779   3.7922   3.7957
     3.8030   3.8087   3.8099   3.8127   3.8146   3.8156   3.8178   3.8272
     3.8288   3.8315   3.8376   3.8381   3.8391   3.8415   3.8416   3.8471
     3.8501   3.8543   3.8569   3.8589   3.8599   3.8619   3.8621   3.8636
     3.8702   3.8712   3.8754   3.8801   3.8803   3.8812   3.8817   3.8836
     3.8854   3.8923   3.8937   3.8955   3.8983   3.9000   3.9089   3.9143
     3.9185   3.9309   3.9332   3.9339   3.9343   3.9346   3.9347   3.9350
     3.9356   3.9450   3.9521   3.9533   3.9544   3.9558   3.9575   3.9581
     3.9628   3.9662   3.9724   3.9725   3.9742   3.9744   3.9758   3.9762
     3.9766   3.9807   3.9818   3.9833   3.9838   3.9898   3.9930   3.9974
     3.9979   4.0021   4.0053   4.0099   4.0104   4.0116   4.0188   4.0234
     4.0303   4.0307   4.0325   4.0333   4.0334   4.0339   4.0359   4.0459
     4.0521   4.0544   4.0563   4.0582   4.0634   4.0641   4.0661   4.0664
     4.0728   4.0746   4.0747   4.0780   4.0784   4.0807   4.0811   4.0814
     4.0827   4.0921   4.0928   4.0957   4.0959   4.0961   4.0963   4.0973
     4.0989   4.1010   4.1018   4.1054   4.1063   4.1098   4.1105   4.1109
     4.1115   4.1139   4.1258   4.1283   4.1301   4.1322   4.1322   4.1376
     4.1380   4.1380   4.1484   4.1486   4.1501   4.1530   4.1539   4.1557
     4.1585   4.1610   4.1647   4.1684   4.1692   4.1748   4.1752   4.1781
     4.1814   4.1827   4.1833   4.1845   4.1861   4.1891   4.1911   4.1915
     4.1931   4.1937   4.1977   4.1986   4.1989   4.2004   4.2022   4.2038
     4.2055   4.2079   4.2082   4.2085   4.2086   4.2121   4.2186   4.2190
     4.2203   4.2223   4.2228   4.2242   4.2286   4.2288   4.2288   4.2300
     4.2312   4.2346   4.2368   4.2463   4.2473   4.2505   4.2509   4.2520
     4.2585   4.2648   4.2668   4.2698   4.2721   4.2730   4.2863   4.2909
     4.2919   4.2926   4.2934   4.2939   4.2964   4.2967   4.2983   4.2994
     4.3026   4.3031   4.3036   4.3041   4.3122   4.3122   4.3212   4.3217
     4.3229   4.3297   4.3305   4.3322   4.3329   4.3331   4.3409   4.3421
     4.3455   4.3513   4.3527   4.3542   4.3573   4.3578   4.3596   4.3623
     4.3650   4.3652   4.3674   4.3687   4.3764   4.3788   4.3838   4.3870
     4.3879   4.3935   4.3941   4.3964   4.3965   4.3982   4.4040   4.4059
     4.4063   4.4072   4.4127   4.4134   4.4216   4.4267   4.4275   4.4321
     4.4340   4.4356   4.4377   4.4399   4.4400   4.4439   4.4497   4.4510
     4.4529   4.4595   4.4610   4.4619   4.4648   4.4715   4.4753   4.4803
     4.4826   4.4900   4.4953   4.4979   4.4990   4.4993   4.5011   4.5038
     4.5131   4.5142   4.5179   4.5230   4.5242   4.5338   4.5340   4.5345
     4.5367   4.5409   4.5423   4.5426   4.5430   4.5479   4.5524   4.5553
     4.5557   4.5560   4.5609   4.5696   4.5760   4.5822   4.5829   4.5896
[...]
     atom   58 type  1   force =     0.00000000    0.00056170   -0.00384019
     atom   59 type  1   force =     0.00000221    0.00056213   -0.00383991
     atom   60 type  1   force =     0.00000000    0.00056247   -0.00383833
     atom   61 type  1   force =    -0.00000185   -0.00053438    0.00457951
     atom   62 type  1   force =    -0.00000187   -0.00053434    0.00457951
     atom   63 type  1   force =    -0.00000187   -0.00053436    0.00457947
     atom   64 type  1   force =    -0.00000173   -0.00053426    0.00457837
     atom   65 type  1   force =    -0.00000171   -0.00053425    0.00457841
     atom   66 type  1   force =     0.00000187   -0.00053433    0.00457948
     atom   67 type  1   force =     0.00000185   -0.00053438    0.00457951
     atom   68 type  1   force =     0.00000187   -0.00053434    0.00457951
     atom   69 type  1   force =     0.00000187   -0.00053436    0.00457947
     atom   70 type  1   force =    -0.00000227    0.00056210   -0.00383984
     atom   71 type  1   force =    -0.00000224    0.00056213   -0.00383989
     atom   72 type  1   force =     0.00000227    0.00056210   -0.00383984
     atom   73 type  1   force =     0.00000224    0.00056213   -0.00383989
     atom   74 type  1   force =     0.00000000    0.00056236   -0.00383827
     atom   75 type  1   force =     0.00000000    0.00056235   -0.00383821
     atom   76 type  1   force =     0.00000000    0.00056239   -0.00383821
     atom   77 type  1   force =    -0.00000172   -0.00053425    0.00457828
     atom   78 type  1   force =     0.00000173   -0.00053426    0.00457837
     atom   79 type  1   force =     0.00000171   -0.00053425    0.00457841
     atom   80 type  1   force =     0.00000172   -0.00053425    0.00457828
     atom   81 type  1   force =     0.00000192   -0.00045260   -0.00049328
     atom   82 type  1   force =     0.00000000    0.00028540   -0.00072440
     atom   83 type  1   force =    -0.00000227    0.00028635   -0.00072510
     atom   84 type  1   force =     0.00000000    0.00028677   -0.00072644
     atom   85 type  1   force =    -0.00000236   -0.00045304   -0.00049387
     atom   86 type  1   force =     0.00000000    0.00028535   -0.00072443
     atom   87 type  1   force =    -0.00000225    0.00028629   -0.00072520
     atom   88 type  1   force =    -0.00000223    0.00028628   -0.00072516
     atom   89 type  1   force =     0.00000000    0.00028670   -0.00072652
     atom   90 type  1   force =     0.00000225    0.00028629   -0.00072520
     atom   91 type  1   force =    -0.00000235   -0.00045305   -0.00049393
     atom   92 type  1   force =    -0.00000192   -0.00045260   -0.00049328
     atom   93 type  1   force =    -0.00000192   -0.00045262   -0.00049333
     atom   94 type  1   force =     0.00000192   -0.00045262   -0.00049333
     atom   95 type  1   force =     0.00000236   -0.00045304   -0.00049387
     atom   96 type  1   force =     0.00000000    0.00028536   -0.00072450
     atom   97 type  1   force =    -0.00000225    0.00028629   -0.00072516
     atom   98 type  1   force =     0.00000000    0.00028672   -0.00072650
     atom   99 type  1   force =     0.00000227    0.00028635   -0.00072510
     atom  100 type  1   force =     0.00000225    0.00028629   -0.00072516
     atom  101 type  1   force =    -0.00000236   -0.00045305   -0.00049383
     atom  102 type  1   force =    -0.00000237   -0.00045309   -0.00049382
     atom  103 type  1   force =    -0.00000194   -0.00045264   -0.00049326
     atom  104 type  1   force =    -0.00000193   -0.00045269   -0.00049325
     atom  105 type  1   force =     0.00000194   -0.00045264   -0.00049326
     atom  106 type  1   force =     0.00000235   -0.00045305   -0.00049393
     atom  107 type  1   force =     0.00000236   -0.00045305   -0.00049383
     atom  108 type  1   force =     0.00000000    0.00028535   -0.00072441
     atom  109 type  1   force =     0.00000000    0.00028672   -0.00072650
     atom  110 type  1   force =     0.00000223    0.00028628   -0.00072516
     atom  111 type  1   force =     0.00000193   -0.00045269   -0.00049325
     atom  112 type  1   force =     0.00000237   -0.00045309   -0.00049382
     atom  113 type  1   force =    -0.00000127   -0.00018583    0.00042438
     atom  114 type  1   force =     0.00000128   -0.00018577    0.00042441
     atom  115 type  1   force =     0.00000000    0.00019599   -0.00054776
     atom  116 type  1   force =    -0.00000128   -0.00018577    0.00042441
     atom  117 type  1   force =    -0.00000156   -0.00018601    0.00042461
     atom  118 type  1   force =    -0.00000157   -0.00018609    0.00042464
     atom  119 type  1   force =     0.00000156   -0.00018601    0.00042461
     atom  120 type  1   force =    -0.00000242    0.00019670   -0.00054854
     atom  121 type  1   force =    -0.00000242    0.00019682   -0.00054853
     atom  122 type  1   force =     0.00000000    0.00019611   -0.00054774
     atom  123 type  1   force =     0.00000242    0.00019670   -0.00054854
     atom  124 type  1   force =     0.00000000    0.00019622   -0.00054927
     atom  125 type  1   force =    -0.00000128   -0.00018571    0.00042438
     atom  126 type  1   force =    -0.00000127   -0.00018568    0.00042438
     atom  127 type  1   force =    -0.00000157   -0.00018595    0.00042463
     atom  128 type  1   force =    -0.00000157   -0.00018594    0.00042461
     atom  129 type  1   force =     0.00000157   -0.00018609    0.00042464
     atom  130 type  1   force =     0.00000157   -0.00018595    0.00042463
     atom  131 type  1   force =     0.00000157   -0.00018594    0.00042461
     atom  132 type  1   force =     0.00000127   -0.00018583    0.00042438
     atom  133 type  1   force =     0.00000128   -0.00018571    0.00042438
     atom  134 type  1   force =     0.00000127   -0.00018568    0.00042438
     atom  135 type  1   force =    -0.00000243    0.00019673   -0.00054853
     atom  136 type  1   force =    -0.00000242    0.00019678   -0.00054849
     atom  137 type  1   force =     0.00000000    0.00019602   -0.00054774
     atom  138 type  1   force =     0.00000000    0.00019607   -0.00054772
     atom  139 type  1   force =     0.00000242    0.00019682   -0.00054853
     atom  140 type  1   force =     0.00000243    0.00019673   -0.00054853
     atom  141 type  1   force =     0.00000242    0.00019678   -0.00054849
     atom  142 type  1   force =     0.00000000    0.00019639   -0.00054925
     atom  143 type  1   force =     0.00000000    0.00019626   -0.00054927
     atom  144 type  1   force =     0.00000000    0.00019631   -0.00054927
     atom  145 type  1   force =    -0.00000238    0.00018747   -0.00042642
     atom  146 type  1   force =     0.00000000    0.00018712   -0.00042678
     atom  147 type  1   force =     0.00000238    0.00018747   -0.00042642
     atom  148 type  1   force =    -0.00000243   -0.00019592    0.00054699
     atom  149 type  1   force =    -0.00000179   -0.00019483    0.00054704
     atom  150 type  1   force =    -0.00000179   -0.00019484    0.00054706
     atom  151 type  1   force =    -0.00000237    0.00018743   -0.00042637
     atom  152 type  1   force =    -0.00000240    0.00018741   -0.00042642
     atom  153 type  1   force =    -0.00000239    0.00018742   -0.00042642
     atom  154 type  1   force =     0.00000000    0.00018705   -0.00042676
     atom  155 type  1   force =     0.00000000    0.00018705   -0.00042677
     atom  156 type  1   force =     0.00000000    0.00018706   -0.00042681
     atom  157 type  1   force =     0.00000237    0.00018743   -0.00042637
     atom  158 type  1   force =     0.00000240    0.00018741   -0.00042642
     atom  159 type  1   force =     0.00000239    0.00018742   -0.00042642
     atom  160 type  1   force =     0.00000000    0.00018807   -0.00042766
     atom  161 type  1   force =     0.00000000    0.00018802   -0.00042755
     atom  162 type  1   force =     0.00000000    0.00018801   -0.00042759
     atom  163 type  1   force =     0.00000000    0.00018802   -0.00042762
     atom  164 type  1   force =    -0.00000243   -0.00019594    0.00054699
     atom  165 type  1   force =    -0.00000243   -0.00019592    0.00054701
     atom  166 type  1   force =    -0.00000243   -0.00019595    0.00054694
     atom  167 type  1   force =    -0.00000179   -0.00019483    0.00054706
     atom  168 type  1   force =    -0.00000178   -0.00019485    0.00054701
     atom  169 type  1   force =     0.00000179   -0.00019483    0.00054704
     atom  170 type  1   force =     0.00000179   -0.00019484    0.00054706
     atom  171 type  1   force =     0.00000179   -0.00019483    0.00054706
     atom  172 type  1   force =     0.00000178   -0.00019485    0.00054701
     atom  173 type  1   force =     0.00000243   -0.00019592    0.00054699
     atom  174 type  1   force =     0.00000243   -0.00019594    0.00054699
     atom  175 type  1   force =     0.00000243   -0.00019592    0.00054701
     atom  176 type  1   force =     0.00000243   -0.00019595    0.00054694
     atom  177 type  1   force =     0.00000000    0.00045307    0.00050018
     atom  178 type  1   force =     0.00000000    0.00045298    0.00050012
     atom  179 type  1   force =    -0.00000330    0.00045387    0.00050040
     atom  180 type  1   force =    -0.00000331    0.00045384    0.00050034
     atom  181 type  1   force =     0.00000000    0.00045328    0.00049979
     atom  182 type  1   force =     0.00000330    0.00045387    0.00050040
     atom  183 type  1   force =    -0.00000237   -0.00028525    0.00072811
     atom  184 type  1   force =    -0.00000243   -0.00028540    0.00072917
     atom  185 type  1   force =     0.00000243   -0.00028540    0.00072917
     atom  186 type  1   force =     0.00000000    0.00045299    0.00050017
     atom  187 type  1   force =    -0.00000332    0.00045382    0.00050033
     atom  188 type  1   force =    -0.00000331    0.00045384    0.00050035
     atom  189 type  1   force =     0.00000000    0.00045323    0.00049977
     atom  190 type  1   force =     0.00000000    0.00045322    0.00049977
     atom  191 type  1   force =     0.00000332    0.00045382    0.00050033
     atom  192 type  1   force =     0.00000331    0.00045384    0.00050035
     atom  193 type  1   force =    -0.00000236   -0.00028524    0.00072804
     atom  194 type  1   force =    -0.00000238   -0.00028522    0.00072812
     atom  195 type  1   force =    -0.00000235   -0.00028528    0.00072816
     atom  196 type  1   force =    -0.00000242   -0.00028540    0.00072913
     atom  197 type  1   force =    -0.00000242   -0.00028539    0.00072918
     atom  198 type  1   force =    -0.00000245   -0.00028543    0.00072918
     atom  199 type  1   force =     0.00000242   -0.00028540    0.00072913
     atom  200 type  1   force =     0.00000242   -0.00028539    0.00072918
     atom  201 type  1   force =     0.00000245   -0.00028543    0.00072918
     atom  202 type  1   force =     0.00000237   -0.00028525    0.00072811
     atom  203 type  1   force =     0.00000236   -0.00028524    0.00072804
     atom  204 type  1   force =     0.00000238   -0.00028522    0.00072812
     atom  205 type  1   force =     0.00000235   -0.00028528    0.00072816
     atom  206 type  1   force =     0.00000000    0.00045301    0.00050016
     atom  207 type  1   force =     0.00000000    0.00045321    0.00049976
     atom  208 type  1   force =     0.00000331    0.00045384    0.00050034
     atom  209 type  1   force =    -0.00000163   -0.00056118    0.00383393
     atom  210 type  1   force =    -0.00000111   -0.00056157    0.00383339
     atom  211 type  1   force =     0.00000111   -0.00056157    0.00383339
     atom  212 type  1   force =     0.00000159   -0.00056129    0.00383397
     atom  213 type  1   force =    -0.00000255    0.00053468   -0.00458444
     atom  214 type  1   force =     0.00000000    0.00053574   -0.00458486
     atom  215 type  1   force =     0.00000256    0.00053474   -0.00458442
     atom  216 type  1   force =     0.00000000    0.00053364   -0.00458383
     atom  217 type  1   force =    -0.00000162   -0.00056130    0.00383397
     atom  218 type  1   force =    -0.00000159   -0.00056129    0.00383397
     atom  219 type  1   force =    -0.00000156   -0.00056117    0.00383396
     atom  220 type  1   force =    -0.00000112   -0.00056172    0.00383342
     atom  221 type  1   force =    -0.00000114   -0.00056177    0.00383339
     atom  222 type  1   force =     0.00000112   -0.00056172    0.00383342
     atom  223 type  1   force =     0.00000114   -0.00056177    0.00383339
     atom  224 type  1   force =     0.00000162   -0.00056130    0.00383397
     atom  225 type  1   force =     0.00000163   -0.00056118    0.00383393
     atom  226 type  1   force =    -0.00000258    0.00053461   -0.00458441
     atom  227 type  1   force =    -0.00000256    0.00053474   -0.00458442
     atom  228 type  1   force =    -0.00000255    0.00053474   -0.00458436
     atom  229 type  1   force =     0.00000000    0.00053565   -0.00458481
     atom  230 type  1   force =     0.00000000    0.00053567   -0.00458485
     atom  231 type  1   force =     0.00000258    0.00053461   -0.00458441
     atom  232 type  1   force =     0.00000255    0.00053468   -0.00458444
     atom  233 type  1   force =     0.00000000    0.00053351   -0.00458378
     atom  234 type  1   force =     0.00000000    0.00053358   -0.00458382
     atom  235 type  1   force =    -0.00000115   -0.00056160    0.00383339
     atom  236 type  1   force =     0.00000115   -0.00056160    0.00383339
     atom  237 type  1   force =     0.00000156   -0.00056117    0.00383396
     atom  238 type  1   force =     0.00000000    0.00053572   -0.00458478
     atom  239 type  1   force =     0.00000255    0.00053474   -0.00458436
     atom  240 type  1   force =     0.00000000    0.00053362   -0.00458379
     atom  241 type  1   force =    -0.00000265   -0.00335286    0.01652638
     atom  242 type  1   force =     0.00000000   -0.00335288    0.01652578
     atom  243 type  1   force =     0.00000277   -0.00335298    0.01652647
     atom  244 type  1   force =     0.00000000   -0.00335262    0.01652818
     atom  245 type  1   force =    -0.00000128    0.00159316    0.00961284
     atom  246 type  1   force =    -0.00000124    0.00159445    0.00960961
     atom  247 type  1   force =     0.00000124    0.00159445    0.00960961
     atom  248 type  1   force =     0.00000136    0.00159318    0.00961282
     atom  249 type  1   force =    -0.00000265   -0.00335293    0.01652646
     atom  250 type  1   force =    -0.00000277   -0.00335298    0.01652647
     atom  251 type  1   force =    -0.00000274   -0.00335286    0.01652651
     atom  252 type  1   force =     0.00000000   -0.00335294    0.01652599
     atom  253 type  1   force =     0.00000000   -0.00335294    0.01652586
     atom  254 type  1   force =     0.00000265   -0.00335293    0.01652646
     atom  255 type  1   force =     0.00000265   -0.00335286    0.01652638
     atom  256 type  1   force =     0.00000000   -0.00335262    0.01652830
     atom  257 type  1   force =     0.00000000   -0.00335248    0.01652819
     atom  258 type  1   force =    -0.00000129    0.00159320    0.00961289
     atom  259 type  1   force =    -0.00000136    0.00159318    0.00961282
     atom  260 type  1   force =    -0.00000122    0.00159317    0.00961282
     atom  261 type  1   force =    -0.00000129    0.00159445    0.00960964
     atom  262 type  1   force =    -0.00000132    0.00159441    0.00960953
     atom  263 type  1   force =     0.00000129    0.00159445    0.00960964
     atom  264 type  1   force =     0.00000132    0.00159441    0.00960953
     atom  265 type  1   force =     0.00000129    0.00159320    0.00961289
     atom  266 type  1   force =     0.00000128    0.00159316    0.00961284
     atom  267 type  1   force =     0.00000000   -0.00335283    0.01652584
     atom  268 type  1   force =     0.00000274   -0.00335286    0.01652651
     atom  269 type  1   force =     0.00000000   -0.00335254    0.01652811
     atom  270 type  1   force =    -0.00000131    0.00159448    0.00960958
     atom  271 type  1   force =     0.00000131    0.00159448    0.00960958
     atom  272 type  1   force =     0.00000122    0.00159317    0.00961282
     atom  273 type  1   force =    -0.00000041    0.00164961   -0.02676137
     atom  274 type  1   force =     0.00000123    0.00164716   -0.02676479
     atom  275 type  1   force =    -0.00000115    0.00164700   -0.02676456
     atom  276 type  1   force =     0.00000035    0.00164940   -0.02676139
     atom  277 type  1   force =    -0.00000030    0.00164960   -0.02676128
     atom  278 type  1   force =    -0.00000035    0.00164940   -0.02676139
     atom  279 type  1   force =    -0.00000025    0.00164967   -0.02676127
     atom  280 type  1   force =     0.00000115    0.00164712   -0.02676452
     atom  281 type  1   force =     0.00000115    0.00164700   -0.02676456
     atom  282 type  1   force =    -0.00000115    0.00164712   -0.02676452
     atom  283 type  1   force =    -0.00000123    0.00164716   -0.02676479
     atom  284 type  1   force =     0.00000030    0.00164960   -0.02676128
     atom  285 type  1   force =     0.00000041    0.00164961   -0.02676137
     atom  286 type  1   force =     0.00000025    0.00164967   -0.02676127
     atom  287 type  1   force =     0.00000111    0.00164727   -0.02676470
     atom  288 type  1   force =    -0.00000111    0.00164727   -0.02676470

     Total force =     0.190718     Total SCF correction =     0.003190
 
     init_run     :     92.91s CPU     50.07s WALL (       1 calls)
     electrons    :   6104.27s CPU   3193.71s WALL (       1 calls)
     forces       :     27.50s CPU     17.58s WALL (       1 calls)

     Called by init_run:
     wfcinit      :     89.33s CPU     46.78s WALL (       1 calls)
     potinit      :      0.36s CPU      0.23s WALL (       1 calls)
     hinit0       :      0.44s CPU      0.29s WALL (       1 calls)

     Called by electrons:
     c_bands      :   5490.83s CPU   2865.98s WALL (      25 calls)
     sum_band     :    605.07s CPU    318.10s WALL (      25 calls)
     v_of_rho     :      3.19s CPU      1.69s WALL (      25 calls)
     newd         :      3.62s CPU      2.23s WALL (      25 calls)
     mix_rho      :      0.86s CPU      0.44s WALL (      25 calls)

     Called by c_bands:
     init_us_2    :      6.17s CPU      3.18s WALL (     156 calls)
     cegterg      :   5350.25s CPU   2745.86s WALL (      76 calls)

     Called by *egterg:
     cdiaghg      :   1283.60s CPU    654.19s WALL (     656 calls)
     h_psi        :   2591.67s CPU   1336.38s WALL (     662 calls)
     s_psi        :    242.38s CPU    124.51s WALL (     662 calls)
     g_psi        :      1.64s CPU      0.85s WALL (     583 calls)

     Called by h_psi:
     h_psi:calbec :    300.74s CPU    168.18s WALL (     662 calls)
     vloc_psi     :   2037.98s CPU   1037.80s WALL (     662 calls)
     add_vuspsi   :    249.36s CPU    128.23s WALL (     662 calls)

     General routines
     calbec       :    447.18s CPU    250.29s WALL (     749 calls)
     fft          :      3.76s CPU      1.95s WALL (     335 calls)
     ffts         :      0.88s CPU      0.46s WALL (      50 calls)
     fftw         :   2440.51s CPU   1242.88s WALL (  800667 calls)
     interpolate  :      0.44s CPU      0.24s WALL (      25 calls)
 
     Parallel routines
     fft_scatt_xy :     64.52s CPU     33.19s WALL (  801052 calls)
     fft_scatt_yz :   2141.45s CPU   1092.14s WALL (  801052 calls)
 
     PWSCF        :      1h43m CPU  54m26.78s WALL

 
   This run was terminated on:  18:53:10  20Sep2021            

=------------------------------------------------------------------------------=
   JOB DONE.
=------------------------------------------------------------------------------=
