
     Program PWSCF v.6.6 starts on  8Sep2021 at  2:30:56 

     This program is part of the open-source Quantum ESPRESSO suite
     for quantum simulation of materials; please cite
         "P. Giannozzi et al., J. Phys.:Condens. Matter 21 395502 (2009);
         "P. Giannozzi et al., J. Phys.:Condens. Matter 29 465901 (2017);
          URL http://www.quantum-espresso.org", 
     in publications or presentations arising from this work. More details at
     http://www.quantum-espresso.org/quote

     Parallel version (MPI & OpenMP), running on     384 processor cores
     Number of MPI processes:                48
     Threads/MPI process:                     8

     MPI processes distributed on     8 nodes
     K-points division:     npool     =       4
     R & G space division:  proc/nbgrp/npool/nimage =      12
     Fft bands division:     nmany     =       1
     Reading input from ../inputs/input_ausurf_36

     Current dimensions of program PWSCF are:
     Max number of different atomic species (ntypx) = 10
     Max number of k-points (npk) =  40000
     Max angular momentum in pseudopotentials (lmaxx) =  3

     Subspace diagonalization in iterative solution of the eigenvalue problem:
     one sub-group per band group will be used
     ELPA distributed-memory algorithm (size of sub-group:  3*  3 procs)

     Found symmetry operation: I + ( -0.5000  0.0000  0.0000)
     This is a supercell, fractional translations are disabled
 
     Parallelization info
     --------------------
     sticks:   dense  smooth     PW     G-vecs:    dense   smooth      PW
     Min         249     113     31                59375    18339    2729
     Max         250     114     32                59396    18366    2758
     Sum        2995    1367    379               712611   220327   32927
 

     Title: 
      Ausurf                                                                    


     bravais-lattice index     =            8
     lattice parameter (alat)  =      11.1494  a.u.
     unit-cell volume          =    6444.4936 (a.u.)^3
     number of atoms/cell      =           36
     number of atomic types    =            1
     number of electrons       =       396.00
     number of Kohn-Sham states=          238
     kinetic-energy cutoff     =      40.0000  Ry
     charge density cutoff     =     350.0000  Ry
     convergence threshold     =      1.0E-06
     mixing beta               =       0.7000
     number of iterations used =            8  TF        mixing
     Exchange-correlation=  SLA  PW   PBE  PBE
                           (   1   4   3   4   0   0   0)

     celldm(1)=  11.149384  celldm(2)=   0.866025  celldm(3)=   5.369150
     celldm(4)=   0.000000  celldm(5)=   0.000000  celldm(6)=   0.000000

     crystal axes: (cart. coord. in units of alat)
               a(1) = (   1.000000   0.000000   0.000000 )  
               a(2) = (   0.000000   0.866025   0.000000 )  
               a(3) = (   0.000000   0.000000   5.369150 )  

     reciprocal axes: (cart. coord. in units 2 pi/alat)
               b(1) = (  1.000000  0.000000  0.000000 )  
               b(2) = (  0.000000  1.154701  0.000000 )  
               b(3) = (  0.000000  0.000000  0.186249 )  


     PseudoPot. # 1 for Au read from file:
     /marconi/home/userexternal/czeni000/dft_src/pseudo/Au.pbe-nd-van.UPF
     MD5 check sum: deb5c07af10777505a79e28f5b4b4115
     Pseudo is Ultrasoft + core correction, Zval = 11.0
     Generated by new atomic code, or converted to UPF format
     Using radial grid of  985 points,  3 beta functions with: 
                l(1) =   1
                l(2) =   2
                l(3) =   2
     Q(r) pseudized with  8 coefficients,  rinner =    1.100   1.100   1.100
                                                       1.100   1.100

     atomic species   valence    mass     pseudopotential
        Au            11.00   196.96000     Au( 1.00)

      2 Sym. Ops. (no inversion) found



   Cartesian axes

     site n.     atom                  positions (alat units)
         1           Au  tau(   1) = (   0.0000000   0.0000000   0.0000000  )
         2           Au  tau(   2) = (   0.5000000   0.0000000   0.0000000  )
         3           Au  tau(   3) = (   0.2500000   0.1443376   0.4082483  )
         4           Au  tau(   4) = (   0.7500000   0.1443376   0.4082483  )
         5           Au  tau(   5) = (   0.5000000   0.5773503   0.4082483  )
         6           Au  tau(   6) = (   1.0000000   0.5773503   0.4082483  )
         7           Au  tau(   7) = (   0.5000000   0.2886751   0.8164966  )
         8           Au  tau(   8) = (   1.0000000   0.2886751   0.8164966  )
         9           Au  tau(   9) = (   0.2500000   0.7216878   0.8164966  )
        10           Au  tau(  10) = (   0.7500000   0.7216878   0.8164966  )
        11           Au  tau(  11) = (   0.0000000   0.0000000   1.2247449  )
        12           Au  tau(  12) = (   0.5000000   0.0000000   1.2247449  )
        13           Au  tau(  13) = (   0.2500000   0.4330127   1.2247449  )
        14           Au  tau(  14) = (   0.7500000   0.4330127   1.2247449  )
        15           Au  tau(  15) = (   1.0000000   0.5773503   1.6329932  )
        16           Au  tau(  16) = (   0.2500000   0.1443376   1.6329932  )
        17           Au  tau(  17) = (   0.7500000   0.1443376   1.6329932  )
        18           Au  tau(  18) = (   0.5000000   0.5773503   1.6329932  )
        19           Au  tau(  19) = (   0.5000000   0.2886751   2.0412415  )
        20           Au  tau(  20) = (   1.0000000   0.2886751   2.0412415  )
        21           Au  tau(  21) = (   0.2500000   0.7216878   2.0412415  )
        22           Au  tau(  22) = (   0.7500000   0.7216878   2.0412415  )
        23           Au  tau(  23) = (   0.0000000   0.0000000   2.4494897  )
        24           Au  tau(  24) = (   0.5000000   0.0000000   2.4494897  )
        25           Au  tau(  25) = (   0.2500000   0.4330127   2.4494897  )
        26           Au  tau(  26) = (   0.7500000   0.4330127   2.4494897  )
        27           Au  tau(  27) = (   0.2500000   0.1443376   2.8577380  )
        28           Au  tau(  28) = (   0.7500000   0.1443376   2.8577380  )
        29           Au  tau(  29) = (   0.5000000   0.5773503   2.8577380  )
        30           Au  tau(  30) = (   1.0000000   0.5773503   2.8577380  )
        31           Au  tau(  31) = (   0.5000000   0.2886751   3.2659863  )
        32           Au  tau(  32) = (   1.0000000   0.2886751   3.2659863  )
        33           Au  tau(  33) = (   0.2500000   0.7216878   3.2659863  )
        34           Au  tau(  34) = (   0.7500000   0.7216878   3.2659863  )
        35           Au  tau(  35) = (   0.2500000   0.4330127   3.6742346  )
        36           Au  tau(  36) = (   0.7500000   0.4330127   3.6742346  )

     number of k points=    36  Marzari-Vanderbilt smearing, width (Ry)=  0.0500
                       cart. coord. in units 2pi/alat
        k(    1) = (   0.0416667   0.0481125   0.0000000), wk =   0.0555556
        k(    2) = (   0.0416667   0.1443376   0.0000000), wk =   0.0555556
        k(    3) = (   0.0416667   0.2405626   0.0000000), wk =   0.0555556
        k(    4) = (   0.0416667   0.3367877   0.0000000), wk =   0.0555556
        k(    5) = (   0.0416667   0.4330127   0.0000000), wk =   0.0555556
        k(    6) = (   0.0416667   0.5292377   0.0000000), wk =   0.0555556
        k(    7) = (   0.1250000   0.0481125   0.0000000), wk =   0.0555556
        k(    8) = (   0.1250000   0.1443376   0.0000000), wk =   0.0555556
        k(    9) = (   0.1250000   0.2405626   0.0000000), wk =   0.0555556
        k(   10) = (   0.1250000   0.3367877   0.0000000), wk =   0.0555556
        k(   11) = (   0.1250000   0.4330127   0.0000000), wk =   0.0555556
        k(   12) = (   0.1250000   0.5292377   0.0000000), wk =   0.0555556
        k(   13) = (   0.2083333   0.0481125   0.0000000), wk =   0.0555556
        k(   14) = (   0.2083333   0.1443376   0.0000000), wk =   0.0555556
        k(   15) = (   0.2083333   0.2405626   0.0000000), wk =   0.0555556
        k(   16) = (   0.2083333   0.3367877   0.0000000), wk =   0.0555556
        k(   17) = (   0.2083333   0.4330127   0.0000000), wk =   0.0555556
        k(   18) = (   0.2083333   0.5292377   0.0000000), wk =   0.0555556
        k(   19) = (   0.2916667   0.0481125   0.0000000), wk =   0.0555556
        k(   20) = (   0.2916667   0.1443376   0.0000000), wk =   0.0555556
        k(   21) = (   0.2916667   0.2405626   0.0000000), wk =   0.0555556
        k(   22) = (   0.2916667   0.3367877   0.0000000), wk =   0.0555556
        k(   23) = (   0.2916667   0.4330127   0.0000000), wk =   0.0555556
        k(   24) = (   0.2916667   0.5292377   0.0000000), wk =   0.0555556
        k(   25) = (   0.3750000   0.0481125   0.0000000), wk =   0.0555556
        k(   26) = (   0.3750000   0.1443376   0.0000000), wk =   0.0555556
        k(   27) = (   0.3750000   0.2405626   0.0000000), wk =   0.0555556
        k(   28) = (   0.3750000   0.3367877   0.0000000), wk =   0.0555556
        k(   29) = (   0.3750000   0.4330127   0.0000000), wk =   0.0555556
        k(   30) = (   0.3750000   0.5292377   0.0000000), wk =   0.0555556
        k(   31) = (   0.4583333   0.0481125   0.0000000), wk =   0.0555556
        k(   32) = (   0.4583333   0.1443376   0.0000000), wk =   0.0555556
        k(   33) = (   0.4583333   0.2405626   0.0000000), wk =   0.0555556
        k(   34) = (   0.4583333   0.3367877   0.0000000), wk =   0.0555556
        k(   35) = (   0.4583333   0.4330127   0.0000000), wk =   0.0555556
        k(   36) = (   0.4583333   0.5292377   0.0000000), wk =   0.0555556

     Dense  grid:   712611 G-vectors     FFT dimensions: (  72,  60, 360)

     Smooth grid:   220327 G-vectors     FFT dimensions: (  45,  40, 243)

     Estimated max dynamical RAM per process >     186.22 MB

     Estimated total dynamical RAM >       8.73 GB

     Initial potential from superposition of free atoms

     starting charge  395.58197, renormalised to  396.00000

     negative rho (up, down):  9.582E-01 0.000E+00
     Starting wfcs are  324 randomized atomic wfcs

     total cpu time spent up to now is        3.7 secs

     Self-consistent Calculation

     iteration #  1     ecut=    40.00 Ry     beta= 0.70
     Davidson diagonalization with overlap
     ethr =  1.00E-02,  avg # of iterations =  2.6

     Threshold (ethr) on eigenvalues was too large:
     Diagonalizing with lowered threshold

     Davidson diagonalization with overlap
     ethr =  3.35E-04,  avg # of iterations =  2.9

     negative rho (up, down):  9.101E-01 0.000E+00

     total cpu time spent up to now is       17.1 secs

     total energy              =   -3673.13671650 Ry
     estimated scf accuracy    <       1.57432636 Ry

     iteration #  2     ecut=    40.00 Ry     beta= 0.70
     Davidson diagonalization with overlap
     ethr =  3.98E-04,  avg # of iterations =  1.0

     negative rho (up, down):  9.629E-01 0.000E+00

     total cpu time spent up to now is       22.1 secs

     total energy              =   -3673.20636991 Ry
     estimated scf accuracy    <       0.70300604 Ry

     iteration #  3     ecut=    40.00 Ry     beta= 0.70
     Davidson diagonalization with overlap
     ethr =  1.78E-04,  avg # of iterations =  2.8

     negative rho (up, down):  1.015E+00 0.000E+00

     total cpu time spent up to now is       28.8 secs

     total energy              =   -3673.20196520 Ry
     estimated scf accuracy    <       0.41106526 Ry

     iteration #  4     ecut=    40.00 Ry     beta= 0.70
     Davidson diagonalization with overlap
     ethr =  1.04E-04,  avg # of iterations =  4.9

     negative rho (up, down):  1.013E+00 0.000E+00

     total cpu time spent up to now is       36.6 secs

     total energy              =   -3673.19541868 Ry
     estimated scf accuracy    <       0.20233028 Ry

     iteration #  5     ecut=    40.00 Ry     beta= 0.70
     Davidson diagonalization with overlap
     ethr =  5.11E-05,  avg # of iterations =  7.6

     negative rho (up, down):  9.872E-01 0.000E+00

     total cpu time spent up to now is       45.0 secs

     total energy              =   -3673.19241039 Ry
     estimated scf accuracy    <       0.12420740 Ry

     iteration #  6     ecut=    40.00 Ry     beta= 0.70
     Davidson diagonalization with overlap
     ethr =  3.14E-05,  avg # of iterations =  7.7

     negative rho (up, down):  9.885E-01 0.000E+00

     total cpu time spent up to now is       53.6 secs

     total energy              =   -3673.18882998 Ry
     estimated scf accuracy    <       0.11784211 Ry

     iteration #  7     ecut=    40.00 Ry     beta= 0.70
     Davidson diagonalization with overlap
     ethr =  2.98E-05,  avg # of iterations =  2.4

     negative rho (up, down):  9.942E-01 0.000E+00

     total cpu time spent up to now is       59.7 secs

     total energy              =   -3673.18358298 Ry
     estimated scf accuracy    <       0.11992107 Ry

     iteration #  8     ecut=    40.00 Ry     beta= 0.70
     Davidson diagonalization with overlap
     ethr =  2.98E-05,  avg # of iterations =  4.6

     negative rho (up, down):  1.008E+00 0.000E+00

     total cpu time spent up to now is       67.1 secs

     total energy              =   -3673.17797547 Ry
     estimated scf accuracy    <       0.06635730 Ry

     iteration #  9     ecut=    40.00 Ry     beta= 0.70
     Davidson diagonalization with overlap
     ethr =  1.68E-05,  avg # of iterations = 10.8

     negative rho (up, down):  1.003E+00 0.000E+00

     total cpu time spent up to now is       78.8 secs

     total energy              =   -3673.18484290 Ry
     estimated scf accuracy    <       0.08195084 Ry

     iteration # 10     ecut=    40.00 Ry     beta= 0.70
     Davidson diagonalization with overlap
     ethr =  1.68E-05,  avg # of iterations =  1.0

     negative rho (up, down):  1.022E+00 0.000E+00

     total cpu time spent up to now is       83.7 secs

     total energy              =   -3673.18127720 Ry
     estimated scf accuracy    <       0.05000792 Ry

     iteration # 11     ecut=    40.00 Ry     beta= 0.70
     Davidson diagonalization with overlap
     ethr =  1.26E-05,  avg # of iterations =  1.8

     negative rho (up, down):  1.024E+00 0.000E+00

     total cpu time spent up to now is       89.1 secs

     total energy              =   -3673.18274245 Ry
     estimated scf accuracy    <       0.03314554 Ry

     iteration # 12     ecut=    40.00 Ry     beta= 0.70
     Davidson diagonalization with overlap
     ethr =  8.37E-06,  avg # of iterations =  3.4

     negative rho (up, down):  1.033E+00 0.000E+00

     total cpu time spent up to now is       95.9 secs

     total energy              =   -3673.17664408 Ry
     estimated scf accuracy    <       0.03926735 Ry

     iteration # 13     ecut=    40.00 Ry     beta= 0.70
     Davidson diagonalization with overlap
     ethr =  8.37E-06,  avg # of iterations =  9.4

     negative rho (up, down):  1.011E+00 0.000E+00

     total cpu time spent up to now is      105.5 secs

     total energy              =   -3673.17801724 Ry
     estimated scf accuracy    <       0.00426787 Ry

     iteration # 14     ecut=    40.00 Ry     beta= 0.70
     Davidson diagonalization with overlap
     ethr =  1.08E-06,  avg # of iterations =  9.3

     negative rho (up, down):  1.002E+00 0.000E+00

     total cpu time spent up to now is      119.5 secs

     total energy              =   -3673.17875640 Ry
     estimated scf accuracy    <       0.01115752 Ry

     iteration # 15     ecut=    40.00 Ry     beta= 0.70
     Davidson diagonalization with overlap
     ethr =  1.08E-06,  avg # of iterations =  2.2

     negative rho (up, down):  9.901E-01 0.000E+00

     total cpu time spent up to now is      125.2 secs

     total energy              =   -3673.17791468 Ry
     estimated scf accuracy    <       0.00510395 Ry

     iteration # 16     ecut=    40.00 Ry     beta= 0.70
     Davidson diagonalization with overlap
     ethr =  1.08E-06,  avg # of iterations =  8.4

     negative rho (up, down):  9.839E-01 0.000E+00

     total cpu time spent up to now is      134.9 secs

     total energy              =   -3673.17829892 Ry
     estimated scf accuracy    <       0.00021109 Ry

     iteration # 17     ecut=    40.00 Ry     beta= 0.70
     Davidson diagonalization with overlap
     ethr =  5.33E-08,  avg # of iterations =  7.0

     negative rho (up, down):  9.798E-01 0.000E+00

     total cpu time spent up to now is      144.4 secs

     total energy              =   -3673.17831434 Ry
     estimated scf accuracy    <       0.00002581 Ry

     iteration # 18     ecut=    40.00 Ry     beta= 0.70
     Davidson diagonalization with overlap
     ethr =  6.52E-09,  avg # of iterations =  8.6

     negative rho (up, down):  9.788E-01 0.000E+00

     total cpu time spent up to now is      153.7 secs

     total energy              =   -3673.17833764 Ry
     estimated scf accuracy    <       0.00000730 Ry

     iteration # 19     ecut=    40.00 Ry     beta= 0.70
     Davidson diagonalization with overlap
     ethr =  1.84E-09,  avg # of iterations =  3.9

     negative rho (up, down):  9.786E-01 0.000E+00

     total cpu time spent up to now is      160.8 secs

     End of self-consistent calculation

          k = 0.0417 0.0481 0.0000 ( 27553 PWs)   bands (ev):

    -0.8129  -0.4712   0.0255   0.6015   1.1251   1.4434   1.5650   1.5685
     1.6143   1.8506   1.8643   2.0338   2.1255   2.1637   2.2294   2.2807
     2.3231   2.3503   2.3811   2.3916   2.4408   2.4759   2.4837   2.5152
     2.5464   2.5803   2.6416   2.6673   2.7238   2.7592   2.7907   2.8248
     2.8574   2.9404   2.9795   3.0562   3.0816   3.1173   3.1762   3.1947
     3.2141   3.2337   3.2615   3.3218   3.3319   3.3440   3.3608   3.3758
     3.4826   3.5091   3.5481   3.5629   3.5671   3.5869   3.6077   3.6908
     3.7320   3.7327   3.7657   3.7743   3.7941   3.8282   3.8526   3.8937
     3.8953   3.9022   3.9074   3.9194   3.9346   3.9389   3.9551   3.9611
     3.9636   3.9879   3.9941   4.0120   4.0426   4.0734   4.0803   4.0954
     4.0993   4.1179   4.1400   4.1646   4.1656   4.1744   4.1756   4.2067
     4.3004   4.3059   4.3146   4.3185   4.3330   4.3481   4.3673   4.3705
     4.3829   4.3945   4.5098   4.5128   4.5190   4.5251   4.6992   4.7085
     4.7253   4.7468   4.7646   4.7728   4.8822   4.8920   4.9030   4.9915
     5.0354   5.0605   5.1116   5.1244   5.1514   5.1908   5.2013   5.2236
     5.2292   5.2363   5.2704   5.2755   5.2830   5.3190   5.3323   5.3345
     5.3404   5.3474   5.4066   5.4281   5.4316   5.4609   5.4889   5.5165
     5.5455   5.5550   5.6412   5.6479   5.6787   5.7000   5.7304   5.7908
     5.8306   5.8600   5.8973   5.9253   5.9600   5.9964   6.0132   6.0978
     6.1181   6.1338   6.1659   6.1963   6.2066   6.2197   6.2347   6.2529
     6.3038   6.3279   6.3461   6.3609   6.3717   6.3778   6.3923   6.3981
     6.3990   6.4320   6.4347   6.4386   6.4652   6.4865   6.5344   6.5461
     6.5487   6.5751   6.5959   6.5991   6.6011   6.6086   6.6333   6.6383
     6.7566   6.7606   6.9125   6.9130   7.0799   7.6698   7.7971   7.8521
     8.0477   8.2770   8.3597   8.4534   8.4655   8.7138   8.7921   8.9273
     9.0404   9.0559   9.2728   9.2777   9.2965   9.6611   9.7600   9.9043
     9.9109   9.9944  10.5295  10.6511  11.1450  11.2644  11.3375  11.3825
    11.4669  11.8213  11.8827  12.0477  12.0969  12.3381  12.6162  12.6187
    12.6453  12.7686  12.8749  13.2844  13.3837  13.4641  13.4908  13.7255
    13.8080  13.8832  13.9537  13.9953  13.9970  14.0080

          k = 0.0417 0.1443 0.0000 ( 27502 PWs)   bands (ev):

    -0.7121  -0.3720   0.1227   0.6973   1.2202   1.5338   1.6053   1.6506
     1.6610   1.8614   1.8865   2.0574   2.0993   2.1521   2.1679   2.2133
     2.2573   2.2769   2.2877   2.3124   2.3613   2.4146   2.4686   2.4948
     2.4996   2.5195   2.5879   2.6430   2.6926   2.7019   2.7022   2.7114
     2.7434   2.8197   2.8705   2.8926   2.9247   3.0052   3.0411   3.0827
     3.1303   3.1627   3.2320   3.2377   3.2683   3.3401   3.3500   3.3744
     3.5019   3.5242   3.5495   3.5561   3.5887   3.6160   3.6854   3.6859
     3.7021   3.7670   3.7708   3.7916   3.8466   3.8508   3.8649   3.9113
     3.9126   3.9280   3.9387   3.9445   3.9764   3.9822   4.0007   4.0220
     4.0252   4.0563   4.0670   4.0747   4.1084   4.1224   4.1464   4.1739
     4.1780   4.1874   4.1947   4.2221   4.2262   4.2319   4.2717   4.2827
     4.3079   4.3230   4.3491   4.3605   4.3986   4.4232   4.4239   4.4610
     4.4932   4.5053   4.5336   4.5396   4.5778   4.5986   4.6308   4.6705
     4.6893   4.7170   4.8047   4.8209   4.8960   4.9469   4.9752   4.9994
     5.0478   5.0841   5.0936   5.0984   5.1168   5.1296   5.2387   5.2517
     5.2546   5.2575   5.2796   5.3461   5.3471   5.3598   5.3710   5.4099
     5.4373   5.4542   5.4708   5.4979   5.5078   5.5266   5.5380   5.5501
     5.5816   5.6044   5.6129   5.6512   5.6712   5.7144   5.7285   5.7741
     5.7900   5.8587   5.8641   5.9140   5.9480   5.9824   5.9842   6.0200
     6.1242   6.1253   6.1466   6.1504   6.2109   6.2147   6.2235   6.2278
     6.2504   6.2757   6.3145   6.3145   6.3224   6.3343   6.3623   6.3839
     6.3895   6.3931   6.4004   6.4541   6.4583   6.4654   6.5050   6.5419
     6.5433   6.5492   6.5646   6.5972   6.5995   6.6024   6.6024   6.7175
     6.7446   6.7965   6.9108   6.9109   7.1489   7.4630   7.5677   7.6595
     7.7876   7.7932   8.0370   8.0831   8.2942   8.4393   8.4793   8.7582
     8.7941   9.0338   9.1523   9.2661   9.4275   9.7075   9.7679   9.9049
    10.5419  10.6517  10.6636  11.0145  11.2606  11.3007  11.3797  11.6091
    11.6930  11.7722  11.8435  12.0153  12.0882  12.2303  12.2954  12.4477
    12.5529  12.7282  12.8158  12.9191  12.9507  13.1168  13.2777  13.4309
    13.4392  13.6183  13.6486  13.7157  13.8985  14.0434

          k = 0.0417 0.2406 0.0000 ( 27513 PWs)   bands (ev):

    -0.5139  -0.1777   0.3117   0.8821   1.4018   1.5835   1.7091   1.8041
     1.8169   1.8557   1.9103   1.9476   2.0095   2.0846   2.1273   2.1442
     2.1467   2.1617   2.2419   2.2478   2.3028   2.3384   2.3702   2.4366
     2.4397   2.4516   2.4744   2.5358   2.5380   2.5682   2.5945   2.5987
     2.6171   2.6638   2.7719   2.7725   2.8062   2.8491   2.8755   2.9229
     2.9565   3.1332   3.1631   3.1812   3.2793   3.3277   3.3540   3.3779
     3.5321   3.5438   3.5538   3.5936   3.6247   3.6298   3.6924   3.7202
     3.7350   3.7438   3.7593   3.7853   3.8268   3.8572   3.8684   3.9198
     3.9235   3.9489   3.9801   4.0164   4.0194   4.0535   4.0697   4.0710
     4.1022   4.1098   4.1198   4.1395   4.1500   4.1833   4.1937   4.2023
     4.2051   4.2183   4.2370   4.2544   4.3006   4.3062   4.3148   4.3396
     4.3506   4.3692   4.3997   4.4255   4.4668   4.4855   4.4907   4.4992
     4.5356   4.5361   4.5789   4.5864   4.7257   4.7308   4.7853   4.8104
     4.8177   4.8261   4.8497   4.8595   4.9067   5.0022   5.0167   5.0249
     5.0343   5.0374   5.1095   5.1225   5.1805   5.2000   5.2311   5.2504
     5.2741   5.2769   5.2972   5.3644   5.3673   5.3763   5.3768   5.4092
     5.4870   5.5335   5.5426   5.5470   5.5778   5.6203   5.6321   5.6407
     5.6746   5.7080   5.7308   5.7334   5.7669   5.7780   5.8002   5.8290
     5.8342   5.8439   5.8571   5.9036   5.9910   6.0096   6.0441   6.0537
     6.0719   6.0775   6.0908   6.1246   6.1530   6.1688   6.1842   6.1996
     6.2059   6.2256   6.2260   6.2353   6.2659   6.2731   6.2791   6.2828
     6.3072   6.3589   6.3702   6.3774   6.4187   6.4455   6.4498   6.4743
     6.5161   6.5468   6.5485   6.5856   6.5922   6.5992   6.5997   6.6627
     6.7248   6.7396   6.8159   6.9056   6.9063   6.9118   7.0668   7.4071
     7.6393   7.8004   7.8662   8.0290   8.1973   8.3294   8.4200   8.5165
     8.8061   9.0220   9.1286   9.2505   9.3119   9.7010   9.7805   9.8688
    10.2501  10.5447  10.6436  11.0498  11.2182  11.2741  11.3420  11.4438
    11.6621  11.8063  11.9859  12.0117  12.1029  12.1263  12.3037  12.3201
    12.5247  12.5924  12.6535  12.7651  12.8146  12.9349  13.0606  13.0962
    13.1680  13.4464  13.5254  13.6623  13.8265  14.0973

          k = 0.0417 0.3368 0.0000 ( 27517 PWs)   bands (ev):

    -0.2262   0.1021   0.5802   1.1388   1.5058   1.6432   1.7518   1.7548
     1.8301   1.9392   1.9731   1.9999   2.0105   2.0134   2.0285   2.0428
     2.0659   2.0744   2.1689   2.1963   2.2341   2.2735   2.2887   2.3081
     2.3439   2.3809   2.3834   2.4081   2.4495   2.4564   2.4767   2.5535
     2.5906   2.6140   2.6591   2.6731   2.6933   2.7014   2.7856   2.8069
     2.8759   3.1222   3.1401   3.1993   3.2744   3.3128   3.3792   3.4050
     3.4214   3.5151   3.5763   3.5857   3.5909   3.6264   3.6448   3.6979
     3.7045   3.7595   3.7716   3.7878   3.8468   3.8556   3.8678   3.9410
     3.9530   3.9711   3.9759   4.0155   4.0419   4.0580   4.0765   4.0790
     4.1318   4.1412   4.1549   4.1626   4.1695   4.1871   4.2004   4.2560
     4.2741   4.2746   4.2887   4.2968   4.3226   4.3537   4.3690   4.3710
     4.3816   4.3939   4.4713   4.4783   4.4957   4.5051   4.5343   4.5560
     4.5745   4.6621   4.6805   4.6918   4.7145   4.7190   4.8015   4.8151
     4.8242   4.8717   4.9012   4.9253   4.9586   4.9712   4.9820   5.0066
     5.0845   5.0947   5.1294   5.1734   5.2250   5.2391   5.2411   5.2591
     5.2859   5.3266   5.3371   5.3444   5.3732   5.3878   5.4029   5.4035
     5.4730   5.5372   5.5822   5.5992   5.6076   5.6681   5.6967   5.7312
     5.7484   5.7699   5.8374   5.8539   5.8543   5.8575   5.9006   5.9108
     5.9490   5.9496   5.9588   5.9689   6.0132   6.0143   6.0279   6.0361
     6.0479   6.0574   6.0736   6.0767   6.0912   6.1011   6.1302   6.1450
     6.1764   6.1929   6.2095   6.2484   6.2577   6.2636   6.2648   6.2674
     6.2913   6.2932   6.3173   6.3339   6.3364   6.3498   6.3649   6.3779
     6.4244   6.4252   6.4425   6.5474   6.5509   6.5848   6.5897   6.6021
     6.6043   6.7169   6.7283   6.8259   6.8953   6.8964   6.8974   7.4968
     7.6143   7.7173   7.8511   8.0664   8.2648   8.3615   8.4215   8.5961
     8.6836   8.8540   9.0092   9.2263   9.3897   9.7304   9.7558   9.7878
    10.0742  10.2530  10.4663  10.5920  10.7565  10.7871  11.1350  11.1946
    11.2268  11.3898  11.4825  11.6597  11.7792  11.8567  12.1129  12.2550
    12.3471  12.4090  12.6220  12.7047  12.8498  13.1873  13.2841  13.4594
    13.4633  13.6557  13.6884  13.8962  13.9559  14.1119

          k = 0.0417 0.4330 0.0000 ( 27525 PWs)   bands (ev):

     0.1367   0.4501   0.9046   1.3072   1.4288   1.5451   1.6498   1.6966
     1.7919   1.8973   1.9035   1.9192   1.9250   1.9445   2.0365   2.0854
     2.1140   2.1709   2.1737   2.1759   2.1997   2.2057   2.2505   2.2864
     2.2885   2.3237   2.3385   2.3595   2.3626   2.4229   2.4860   2.5087
     2.5181   2.5548   2.5682   2.6489   2.6955   2.7050   2.7232   2.8036
     3.0106   3.0889   3.1044   3.1417   3.2488   3.2916   3.3540   3.4097
     3.4396   3.4520   3.4837   3.5156   3.5843   3.6151   3.6200   3.6487
     3.6780   3.7082   3.7497   3.7650   3.7864   3.8923   3.9039   3.9096
     3.9451   3.9480   3.9655   3.9777   4.0221   4.0630   4.0736   4.0850
     4.1158   4.1397   4.1479   4.1813   4.1915   4.1975   4.2188   4.2238
     4.2687   4.3034   4.3272   4.3447   4.3507   4.3784   4.4046   4.4190
     4.4321   4.4576   4.4624   4.4935   4.5489   4.5570   4.5802   4.5838
     4.5907   4.6126   4.6648   4.7065   4.7478   4.7952   4.8264   4.8333
     4.8598   4.8664   4.9185   4.9266   4.9465   4.9664   4.9819   4.9850
     5.0121   5.0273   5.0521   5.1356   5.1719   5.1825   5.2015   5.2201
     5.3214   5.3469   5.3783   5.3929   5.3969   5.4289   5.4491   5.4806
     5.4942   5.5095   5.5537   5.5748   5.5794   5.5887   5.6072   5.6433
     5.6678   5.7296   5.7676   5.7915   5.7997   5.8345   5.8780   5.8976
     5.9035   5.9071   5.9434   5.9723   6.0237   6.0298   6.0379   6.0595
     6.1091   6.1184   6.1271   6.1565   6.1592   6.1742   6.1938   6.2345
     6.2362   6.2540   6.2716   6.2758   6.2938   6.3004   6.3011   6.3211
     6.3274   6.3573   6.3664   6.3761   6.3908   6.4266   6.4355   6.4493
     6.4642   6.4810   6.4873   6.5642   6.5679   6.5868   6.5884   6.6267
     6.6273   6.7184   6.7253   6.8302   6.8747   6.8775   6.9661   7.4847
     7.6163   7.7838   7.9867   8.2065   8.2358   8.2999   8.5083   8.6561
     8.6806   8.9604   9.0369   9.1737   9.2184   9.4831   9.7080   9.7106
     9.7774   9.9557  10.0862  10.2304  10.3586  10.6336  10.6519  10.9776
    11.0275  11.1342  11.2092  11.3340  11.4416  11.5261  11.8431  12.0924
    12.0992  12.4250  12.5342  12.5788  12.6668  13.0059  13.3228  13.4002
    13.5437  13.6329  13.7995  14.0116  14.0991  14.2507

          k = 0.0417 0.5292 0.0000 ( 27573 PWs)   bands (ev):

     0.5492   0.8363   0.9650   1.2161   1.2464   1.5574   1.6036   1.6195
     1.7228   1.8477   1.8523   1.8547   1.8684   1.9218   2.0304   2.0408
     2.1221   2.1227   2.1516   2.1521   2.1715   2.2259   2.2383   2.2442
     2.3149   2.3181   2.3337   2.4116   2.4166   2.4301   2.4887   2.4954
     2.5247   2.6023   2.6235   2.6689   2.6847   2.7341   2.7690   2.9327
     2.9614   3.0695   3.0835   3.1481   3.1696   3.2911   3.3246   3.3695
     3.4220   3.4496   3.4594   3.4758   3.5121   3.6020   3.6212   3.6470
     3.6482   3.6595   3.6848   3.7790   3.7922   3.8015   3.8651   3.8698
     3.8699   3.9261   3.9496   3.9553   3.9802   4.0262   4.0869   4.1080
     4.1101   4.1338   4.1658   4.1833   4.1890   4.1907   4.2009   4.2186
     4.2378   4.2550   4.3219   4.3579   4.3808   4.4298   4.4315   4.4336
     4.4526   4.4661   4.4687   4.4917   4.5282   4.5336   4.5363   4.5974
     4.6326   4.6593   4.6928   4.7184   4.7516   4.8139   4.8721   4.8811
     4.8963   4.8991   4.9300   4.9597   4.9751   4.9811   4.9991   5.0118
     5.0295   5.0307   5.0822   5.1088   5.1281   5.1541   5.2161   5.2317
     5.2606   5.2615   5.2661   5.2963   5.3271   5.3511   5.3545   5.3752
     5.4200   5.4792   5.4962   5.5164   5.5400   5.5511   5.5726   5.6063
     5.6111   5.6972   5.7483   5.7567   5.7623   5.8118   5.8487   5.8655
     5.8930   5.9061   5.9771   5.9781   5.9955   6.0740   6.0945   6.1170
     6.1430   6.1751   6.1794   6.2015   6.2315   6.2340   6.2599   6.2671
     6.2939   6.3139   6.3362   6.3461   6.3478   6.3763   6.3789   6.3906
     6.3926   6.3958   6.4287   6.4326   6.4517   6.4563   6.4678   6.5118
     6.5127   6.5646   6.5714   6.5873   6.5879   6.6527   6.6705   6.6969
     6.6975   6.7191   6.7248   6.8338   6.8530   6.8764   6.9558   7.5266
     7.7396   7.7988   8.0376   8.1462   8.2410   8.5508   8.5856   8.7752
     8.7833   8.9468   8.9508   9.1042   9.1965   9.3532   9.4610   9.5885
     9.6442   9.7176   9.8305   9.9362   9.9979  10.0744  10.8571  10.8658
    10.9819  11.0638  11.0767  11.2294  11.2592  11.3282  11.7285  11.9531
    12.0584  12.3791  12.4490  12.5510  12.6091  12.8468  13.2441  13.3197
    13.6762  13.6787  13.8227  13.9526  13.9797  14.0904

          k = 0.1250 0.0481 0.0000 ( 27526 PWs)   bands (ev):

    -0.7372  -0.3965   0.0988   0.6743   1.1978   1.5128   1.6297   1.6349
     1.6768   1.9018   1.9259   2.0925   2.1250   2.1652   2.2302   2.2416
     2.2836   2.2969   2.3564   2.4142   2.4404   2.4725   2.5418   2.5508
     2.5817   2.6334   2.6411   2.6938   2.7517   2.7898   2.8323   2.8638
     2.9155   2.9237   3.0344   3.0608   3.0746   3.1540   3.1788   3.1961
     3.2221   3.2578   3.2960   3.2994   3.3325   3.3383   3.3721   3.3885
     3.4134   3.4855   3.5314   3.5527   3.5679   3.6023   3.6292   3.6971
     3.7176   3.7216   3.7228   3.7297   3.8087   3.8157   3.8415   3.8589
     3.8755   3.8837   3.8984   3.9144   3.9351   3.9546   3.9662   3.9766
     3.9818   3.9839   3.9898   4.0326   4.0584   4.0636   4.0747   4.0922
     4.1018   4.1141   4.1648   4.1684   4.1815   4.1892   4.1916   4.2080
     4.2223   4.2368   4.2927   4.3041   4.3122   4.3596   4.3653   4.3838
     4.3942   4.4135   4.4439   4.4980   4.5231   4.5525   4.6509   4.6739
     4.6755   4.7464   4.7707   4.8270   4.8743   4.9330   4.9343   4.9401
     4.9472   5.0631   5.0668   5.1001   5.1215   5.1345   5.1396   5.1516
     5.2109   5.2260   5.2501   5.2603   5.2671   5.3246   5.3274   5.3415
     5.3537   5.3621   5.3642   5.4061   5.4525   5.5064   5.5087   5.5255
     5.5507   5.5734   5.5810   5.5986   5.6383   5.7035   5.7298   5.7566
     5.8006   5.8472   5.8643   5.8696   5.8805   5.9530   5.9700   6.0321
     6.0793   6.0964   6.1336   6.1828   6.1834   6.2068   6.2209   6.2228
     6.2691   6.2868   6.2956   6.3088   6.3149   6.3452   6.3466   6.3562
     6.3677   6.3733   6.3754   6.3951   6.4472   6.4794   6.4813   6.4836
     6.5082   6.5284   6.5378   6.5452   6.5463   6.5768   6.6053   6.6686
     6.7015   6.7883   6.8422   6.8439   7.1245   7.2040   7.3953   7.3983
     7.7219   8.1390   8.2658   8.5428   8.8449   8.9424   8.9857   9.0977
     9.1662   9.1958   9.4414   9.4739   9.5982   9.7591   9.8114  10.0291
    10.1406  10.1419  10.5046  10.7970  11.1635  11.2337  11.3926  11.4103
    11.5351  11.7031  11.9239  11.9537  12.0719  12.0837  12.1802  12.5528
    12.6984  12.7426  12.8258  12.9775  13.2618  13.5807  13.5985  13.7970
    13.8116  13.9981  14.0451  14.1656  14.2972  14.3417

          k = 0.1250 0.1443 0.0000 ( 27539 PWs)   bands (ev):

    -0.6372  -0.2983   0.1948   0.7686   1.2912   1.6013   1.6683   1.7140
     1.7258   1.9240   1.9385   1.9572   2.1162   2.1648   2.2066   2.2218
     2.2608   2.3212   2.3218   2.3235   2.3772   2.3946   2.4787   2.5098
     2.5416   2.5644   2.5866   2.6155   2.6829   2.7270   2.7618   2.7713
     2.7845   2.8148   2.8740   2.9333   2.9686   3.0290   3.0985   3.1024
     3.1243   3.1932   3.2460   3.2699   3.2994   3.3420   3.3814   3.4149
     3.4608   3.4953   3.5255   3.5369   3.5493   3.6390   3.6479   3.6633
     3.7345   3.7509   3.7994   3.8052   3.8127   3.8246   3.8487   3.8728
     3.8778   3.9146   3.9179   3.9486   3.9814   3.9947   4.0119   4.0285
     4.0293   4.0428   4.0446   4.0817   4.1099   4.1224   4.1504   4.1661
     4.1692   4.1913   4.2029   4.2085   4.2285   4.2543   4.2785   4.2839
     4.2995   4.3004   4.3359   4.3456   4.3769   4.4101   4.4247   4.4416
     4.4695   4.5057   4.5549   4.5662   4.5811   4.5835   4.5967   4.6252
     4.6418   4.6964   4.8032   4.8193   4.8764   4.9118   4.9255   4.9715
     4.9754   5.0440   5.0699   5.0772   5.0934   5.1010   5.2104   5.2369
     5.2451   5.2518   5.2905   5.2969   5.3094   5.3344   5.3645   5.3700
     5.3755   5.4066   5.4448   5.4629   5.4637   5.4914   5.5317   5.5373
     5.5756   5.5952   5.6160   5.6420   5.6440   5.6863   5.7091   5.7302
     5.7919   5.8194   5.8264   5.8960   5.9137   5.9402   6.0109   6.0296
     6.0559   6.1052   6.1197   6.1522   6.1548   6.1741   6.1889   6.1992
     6.2201   6.2426   6.2476   6.2588   6.2647   6.2960   6.3295   6.3471
     6.3474   6.3588   6.3882   6.3901   6.4012   6.4667   6.4739   6.4740
     6.4822   6.5312   6.5369   6.5407   6.5463   6.5595   6.5877   6.6677
     6.7147   6.8403   6.8410   6.9642   7.0948   7.1916   7.3759   7.4282
     7.6599   7.7034   7.7553   7.9649   8.2565   8.3176   8.9663   8.9804
     9.0037   9.2329   9.2601   9.5719   9.6172   9.7778   9.8867  10.1476
    10.5117  10.7995  10.8091  11.0015  11.0535  11.2010  11.3368  11.3813
    11.5397  11.6727  11.8382  11.8471  11.9863  12.1283  12.2966  12.3099
    12.4714  12.8724  12.9857  12.9981  13.0880  13.4960  13.5799  13.6138
    13.6344  13.6814  13.9058  14.0577  14.0964  14.2281

          k = 0.1250 0.2406 0.0000 ( 27521 PWs)   bands (ev):

    -0.4405  -0.1059   0.3815   0.9505   1.4700   1.6491   1.7732   1.7998
     1.8670   1.8784   1.9190   2.0015   2.0358   2.1110   2.1459   2.1483
     2.1913   2.1932   2.2861   2.2891   2.3279   2.3414   2.3625   2.4179
     2.4339   2.4736   2.5110   2.5378   2.5973   2.6017   2.6486   2.6627
     2.6758   2.7099   2.7507   2.7936   2.8313   2.8787   2.9007   2.9846
     3.0231   3.1448   3.1694   3.2240   3.3061   3.3296   3.3598   3.4117
     3.4784   3.5043   3.5342   3.5627   3.5924   3.5983   3.7060   3.7156
     3.7247   3.7468   3.7594   3.7958   3.8030   3.8288   3.8392   3.8923
     3.9344   3.9629   3.9808   3.9980   4.0099   4.0304   4.0641   4.0781
     4.0964   4.1054   4.1322   4.1377   4.1530   4.1693   4.1987   4.2086
     4.2286   4.2347   4.2507   4.2699   4.2935   4.3026   4.3298   4.3332
     4.3543   4.3624   4.3880   4.4040   4.4321   4.4595   4.5039   4.5242
     4.5409   4.5423   4.5829   4.6192   4.6623   4.7085   4.7145   4.7276
     4.7639   4.7862   4.8185   4.8404   4.9106   4.9678   4.9681   5.0133
     5.0190   5.0347   5.0714   5.0942   5.1000   5.1254   5.1486   5.1946
     5.2265   5.2608   5.2809   5.3280   5.3348   5.3563   5.3721   5.4068
     5.4193   5.4637   5.4970   5.5195   5.5435   5.5798   5.5872   5.5940
     5.6079   5.6223   5.6795   5.6939   5.6974   5.7413   5.7629   5.8069
     5.8186   5.8262   5.9081   5.9378   5.9544   5.9587   5.9701   6.0127
     6.0187   6.0290   6.0883   6.1031   6.1346   6.1471   6.1560   6.1672
     6.1801   6.1870   6.2099   6.2190   6.2199   6.2427   6.2559   6.2774
     6.2890   6.3210   6.3424   6.3857   6.4200   6.4234   6.4530   6.4813
     6.4922   6.5114   6.5317   6.5398   6.5405   6.5497   6.6149   6.6674
     6.7673   6.8330   6.8356   6.8426   7.0301   7.0386   7.1256   7.1763
     7.2758   7.3471   7.5887   7.6745   8.0189   8.2466   8.3646   9.0043
     9.0950   9.2666   9.3014   9.4092   9.6381   9.7989   9.8458  10.0797
    10.3041  10.3670  10.5123  10.5825  10.8616  11.0971  11.2953  11.3707
    11.5077  11.7682  12.0033  12.0776  12.1580  12.2228  12.3317  12.5628
    12.7155  12.8587  12.8678  13.0088  13.0744  13.1247  13.2669  13.3371
    13.3809  13.5603  13.8520  13.9068  14.1446  14.2512

          k = 0.1250 0.3368 0.0000 ( 27501 PWs)   bands (ev):

    -0.1548   0.1715   0.6470   1.2038   1.5749   1.6800   1.7087   1.8192
     1.9139   1.9256   2.0013   2.0129   2.0350   2.0689   2.0732   2.1041
     2.1240   2.1539   2.1709   2.2157   2.2289   2.2884   2.2922   2.3457
     2.3731   2.3889   2.4279   2.4592   2.4817   2.5062   2.5473   2.5897
     2.5898   2.6479   2.6633   2.7333   2.7532   2.7624   2.8119   2.8661
     2.8938   3.1231   3.1761   3.2073   3.2935   3.3244   3.3859   3.3860
     3.4473   3.4624   3.5241   3.5614   3.5891   3.6086   3.6497   3.6546
     3.6589   3.7372   3.7663   3.8273   3.8382   3.8570   3.8703   3.9001
     3.9186   3.9450   3.9833   4.0105   4.0307   4.0359   4.0665   4.0812
     4.1011   4.1110   4.1301   4.1502   4.1827   4.2055   4.2085   4.2300
     4.2668   4.2919   4.2940   4.2995   4.3217   4.3230   4.3573   4.3765
     4.3936   4.3965   4.4341   4.4649   4.4954   4.5339   4.5558   4.5561
     4.6098   4.6273   4.6656   4.6927   4.7014   4.7244   4.7484   4.7677
     4.7894   4.7961   4.8489   4.9331   4.9426   4.9570   4.9629   5.0072
     5.0592   5.0700   5.0774   5.1291   5.1433   5.1552   5.1832   5.1843
     5.2301   5.2721   5.2972   5.3217   5.3480   5.3610   5.4004   5.4377
     5.4564   5.4987   5.5268   5.5334   5.5432   5.6303   5.6356   5.6756
     5.7012   5.7258   5.7563   5.7680   5.7927   5.7962   5.8729   5.8764
     5.9011   5.9080   5.9525   5.9553   5.9804   5.9886   6.0004   6.0316
     6.0323   6.0630   6.0723   6.1040   6.1207   6.1215   6.1472   6.1480
     6.1644   6.1747   6.1841   6.2324   6.2325   6.2478   6.2598   6.2811
     6.2923   6.3261   6.3379   6.3576   6.3809   6.3877   6.3912   6.4346
     6.4422   6.4813   6.5106   6.5151   6.5188   6.5491   6.5573   6.5639
     6.5811   6.6646   6.7073   6.8183   6.8231   6.9228   6.9712   7.0594
     7.1871   7.3457   7.5600   7.6640   7.8644   8.2605   8.3483   8.8022
     9.0301   9.1235   9.3084   9.4700   9.4730   9.6382   9.7735   9.8570
     9.9281  10.1339  10.2082  10.3903  10.5469  10.7552  10.8782  11.1787
    11.2674  11.6902  11.7292  11.9387  12.1100  12.2484  12.2802  12.3195
    12.4727  12.4820  12.7315  13.0058  13.2140  13.2443  13.5341  13.5407
    13.6860  13.7468  13.8814  14.0024  14.2538  14.3097

          k = 0.1250 0.4330 0.0000 ( 27522 PWs)   bands (ev):

     0.2062   0.5171   0.9683   1.3786   1.4916   1.6107   1.6117   1.7567
     1.8528   1.8595   1.9156   1.9644   1.9896   2.0035   2.0803   2.0954
     2.1473   2.1687   2.1981   2.2215   2.2393   2.2717   2.2762   2.3136
     2.3505   2.3860   2.3884   2.3931   2.3985   2.4794   2.4842   2.5328
     2.5528   2.6065   2.6238   2.7090   2.7140   2.7375   2.7672   2.8643
     3.0244   3.0910   3.1367   3.1503   3.2608   3.2987   3.3489   3.4095
     3.4222   3.4548   3.4688   3.4799   3.5528   3.5877   3.5906   3.6268
     3.6772   3.6911   3.7236   3.7374   3.8344   3.8367   3.8915   3.8967
     3.9165   3.9224   3.9323   3.9663   3.9920   4.0408   4.0457   4.0593
     4.0714   4.1074   4.1217   4.1513   4.1612   4.1935   4.2121   4.2131
     4.2432   4.2485   4.2913   4.3219   4.3469   4.3763   4.3831   4.3853
     4.4079   4.4466   4.4614   4.5160   4.5327   4.5452   4.5524   4.5566
     4.6097   4.6448   4.6709   4.7053   4.7698   4.7800   4.7990   4.8441
     4.8509   4.8798   4.8861   4.9074   4.9076   4.9484   4.9551   4.9714
     4.9785   5.0304   5.0733   5.1180   5.1602   5.1611   5.1930   5.2148
     5.2813   5.3286   5.3456   5.3613   5.3879   5.3883   5.4297   5.4533
     5.4856   5.4946   5.4974   5.5373   5.5491   5.5740   5.6434   5.6787
     5.7088   5.7420   5.7494   5.7689   5.8406   5.8546   5.8626   5.9023
     5.9148   5.9581   5.9705   5.9797   6.0273   6.0637   6.0663   6.0720
     6.0871   6.0907   6.1144   6.1341   6.1610   6.1951   6.2015   6.2024
     6.2083   6.2181   6.2287   6.2498   6.2575   6.2686   6.2732   6.2878
     6.2887   6.3146   6.3391   6.3550   6.3711   6.3754   6.3802   6.3969
     6.4317   6.4548   6.4734   6.5069   6.5381   6.5451   6.5509   6.5800
     6.6145   6.6570   6.6834   6.7911   6.7985   6.9105   6.9559   7.0724
     7.2983   7.4843   7.5299   7.7589   7.8872   8.2719   8.3490   8.5146
     8.7451   8.8107   9.0601   9.1494   9.2552   9.3438   9.6503   9.7892
     9.8021   9.9664  10.2437  10.3086  10.3248  10.7339  10.7661  11.1195
    11.2894  11.4399  11.5534  11.6100  11.6596  11.7685  12.0659  12.1628
    12.2721  12.4868  12.5139  12.7129  12.8817  13.2909  13.4082  13.5278
    13.6015  13.8496  14.0028  14.1599  14.2007  14.6755

          k = 0.1250 0.5292 0.0000 ( 27553 PWs)   bands (ev):

     0.6178   0.9017   1.0348   1.2810   1.3081   1.6012   1.6172   1.6504
     1.7828   1.8491   1.8750   1.8936   1.8998   1.9817   2.0481   2.0793
     2.1391   2.1539   2.1634   2.2024   2.2211   2.2445   2.2811   2.3110
     2.3426   2.3518   2.4043   2.4361   2.4700   2.4803   2.5226   2.5389
     2.5908   2.6632   2.6765   2.6787   2.7240   2.7860   2.8261   2.9483
     2.9915   3.0732   3.1141   3.1628   3.1773   3.2991   3.3292   3.3597
     3.3902   3.4376   3.4377   3.4694   3.4704   3.5593   3.5649   3.6091
     3.6245   3.6442   3.6739   3.7351   3.7746   3.7778   3.8179   3.8599
     3.8802   3.8955   3.9332   3.9558   3.9575   3.9725   4.0189   4.0728
     4.0828   4.0990   4.1098   4.1381   4.1783   4.1846   4.1938   4.2005
     4.2289   4.2463   4.2520   4.3213   4.3306   4.3675   4.3687   4.4063
     4.4268   4.4378   4.4620   4.4826   4.5011   4.5179   4.5426   4.5431
     4.5697   4.6478   4.7124   4.7719   4.8046   4.8438   4.8545   4.8808
     4.8937   4.9179   4.9192   4.9459   4.9517   4.9817   5.0069   5.0115
     5.0164   5.0434   5.0930   5.1393   5.1548   5.1930   5.2273   5.2330
     5.2587   5.2865   5.3120   5.3123   5.3358   5.3692   5.4011   5.4323
     5.4707   5.4780   5.5010   5.5692   5.5726   5.5984   5.6419   5.6503
     5.6609   5.6852   5.6917   5.7598   5.7780   5.7907   5.7992   5.8398
     5.8739   5.9237   5.9372   6.0303   6.0450   6.0554   6.0760   6.0888
     6.0985   6.1209   6.1316   6.1565   6.1654   6.2246   6.2349   6.2379
     6.2488   6.2580   6.2774   6.2824   6.2922   6.3122   6.3270   6.3368
     6.3500   6.3643   6.3821   6.3938   6.4012   6.4101   6.4200   6.4473
     6.4824   6.5084   6.5348   6.5398   6.5507   6.5944   6.6250   6.6539
     6.6558   6.6613   6.6790   6.7484   6.7858   6.9538   7.0461   7.1993
     7.5527   7.6293   7.7927   7.8827   7.9082   8.1020   8.1864   8.1909
     8.4425   8.5574   8.7581   8.8610   9.0162   9.1030   9.3705   9.8567
     9.9073  10.0777  10.1010  10.3275  10.5031  10.7768  10.9419  11.0388
    11.0894  11.2416  11.3479  11.3507  11.4692  11.5750  11.9608  12.1053
    12.1412  12.4416  12.4882  12.6182  12.8208  13.0320  13.3351  13.4286
    13.6311  13.7182  13.9579  14.0452  14.0630  14.4046

          k = 0.2083 0.0481 0.0000 ( 27525 PWs)   bands (ev):

    -0.5876  -0.2495   0.2427   0.8163   1.3393   1.6470   1.7556   1.7633
     1.7976   1.8383   1.9731   1.9923   2.0436   2.1387   2.1987   2.2513
     2.3434   2.3554   2.4225   2.4308   2.4986   2.5683   2.5826   2.6600
     2.6792   2.7041   2.7050   2.7573   2.7855   2.8081   2.8791   2.9155
     2.9435   2.9596   3.0504   3.1030   3.1075   3.1522   3.1762   3.1942
     3.2304   3.2801   3.2948   3.3108   3.3160   3.3306   3.3375   3.4120
     3.4489   3.4697   3.4920   3.5191   3.5548   3.5577   3.6149   3.6489
     3.6569   3.6681   3.6802   3.7575   3.7583   3.7860   3.7903   3.8406
     3.8605   3.8664   3.8919   3.8983   3.9540   3.9570   3.9691   3.9693
     3.9963   4.0049   4.0288   4.0464   4.0477   4.0588   4.0754   4.1147
     4.1394   4.1420   4.1499   4.1503   4.1723   4.1759   4.1833   4.1910
     4.2538   4.2614   4.2635   4.2952   4.3094   4.3242   4.3853   4.3900
     4.4034   4.4616   4.4712   4.4816   4.4940   4.5500   4.5981   4.6151
     4.6167   4.7272   4.7722   4.8305   4.8533   4.8766   4.8891   4.9104
     4.9777   4.9899   5.0122   5.0544   5.0720   5.0853   5.0946   5.1429
     5.1879   5.1885   5.2128   5.2231   5.2447   5.2593   5.2679   5.3251
     5.3353   5.3524   5.3823   5.3933   5.3939   5.4294   5.4684   5.5076
     5.5137   5.5392   5.5520   5.5629   5.5942   5.6261   5.6287   5.7290
     5.7505   5.7962   5.8128   5.8597   5.8616   5.9379   5.9453   5.9626
     6.0562   6.0698   6.0981   6.1095   6.1361   6.1472   6.1638   6.1800
     6.1802   6.2092   6.2326   6.2355   6.2545   6.2722   6.2764   6.2856
     6.2859   6.2965   6.3092   6.3261   6.3630   6.3793   6.3854   6.4205
     6.4224   6.4351   6.4380   6.4543   6.4965   6.5573   6.6188   6.6397
     6.6679   6.6851   6.6942   6.7148   6.7163   6.8759   7.0634   7.0977
     7.5950   7.7919   8.3052   8.5498   8.8267   9.0722   9.0888   9.3479
     9.4148   9.6603   9.7165   9.7776   9.8381   9.9724  10.0377  10.2622
    10.4361  10.4455  10.6216  11.0044  11.0661  11.2102  11.3681  11.4650
    11.5088  11.5923  11.6761  11.7802  12.0044  12.0998  12.1628  12.5155
    12.7546  12.8450  12.9506  13.0675  13.4247  13.5704  13.6155  13.7451
    13.7547  13.7672  14.0953  14.1307  14.1494  14.3915

          k = 0.2083 0.1443 0.0000 ( 27514 PWs)   bands (ev):

    -0.4895  -0.1536   0.3358   0.9069   1.4282   1.7305   1.7477   1.7898
     1.8360   1.8509   1.9450   2.0294   2.0433   2.1317   2.2216   2.2722
     2.2934   2.3510   2.3716   2.4375   2.4381   2.4653   2.4714   2.5878
     2.5891   2.6117   2.6880   2.6883   2.7052   2.7848   2.7884   2.8161
     2.8617   2.8766   2.9016   2.9879   3.0069   3.0791   3.1069   3.1253
     3.1794   3.1958   3.2608   3.3237   3.3392   3.3703   3.4277   3.4379
     3.4385   3.4498   3.4951   3.5052   3.5631   3.5837   3.6179   3.6260
     3.7277   3.7314   3.7375   3.7494   3.7597   3.8016   3.8133   3.8391
     3.8769   3.8833   3.9151   3.9397   3.9496   3.9668   3.9786   3.9986
     4.0264   4.0383   4.0767   4.1156   4.1164   4.1335   4.1680   4.1795
     4.1830   4.2001   4.2101   4.2234   4.2266   4.2496   4.2892   4.3071
     4.3126   4.3153   4.3251   4.3456   4.3483   4.3604   4.3606   4.4811
     4.4830   4.4892   4.5159   4.5239   4.5443   4.5653   4.5825   4.5970
     4.6384   4.6825   4.7637   4.7903   4.8289   4.8363   4.8767   4.9331
     4.9529   4.9754   4.9947   5.0288   5.0595   5.1063   5.1348   5.1544
     5.1653   5.1929   5.1965   5.2144   5.2399   5.2972   5.3091   5.3471
     5.3536   5.3612   5.3814   5.3903   5.4524   5.4540   5.4717   5.4921
     5.5233   5.5273   5.5527   5.5769   5.6202   5.6435   5.6727   5.6828
     5.7535   5.8170   5.8221   5.8598   5.9234   5.9375   5.9442   5.9701
     5.9950   6.0155   6.0519   6.0730   6.0951   6.1195   6.1468   6.1597
     6.1619   6.1720   6.1936   6.2115   6.2241   6.2483   6.2593   6.2650
     6.2717   6.3124   6.3222   6.3401   6.3663   6.3730   6.3871   6.4138
     6.4314   6.4320   6.4525   6.4830   6.5009   6.5581   6.6099   6.6149
     6.6742   6.6776   6.7115   6.7153   6.7550   6.8587   7.0817   7.2086
     7.5874   7.7916   7.9545   8.0388   8.2636   8.3153   8.6851   9.0907
     9.2938   9.4723   9.7442   9.8460   9.8479  10.0411  10.2085  10.3990
    10.4852  10.5951  10.7894  11.0413  11.0647  11.1419  11.2131  11.4139
    11.4748  11.6775  11.7863  11.8818  11.9903  12.2138  12.2572  12.4303
    12.6411  12.9795  13.0109  13.1154  13.1563  13.5265  13.5948  13.6174
    13.7711  13.9138  14.2007  14.2888  14.2968  14.4467

          k = 0.2083 0.2406 0.0000 ( 27501 PWs)   bands (ev):

    -0.2963   0.0346   0.5171   1.0819   1.5992   1.6533   1.7753   1.8823
     1.8925   1.9848   1.9974   2.0384   2.0946   2.0983   2.1597   2.2190
     2.2450   2.2592   2.3038   2.3196   2.3700   2.4264   2.4483   2.4701
     2.4760   2.5039   2.5475   2.6339   2.6434   2.7050   2.7105   2.7329
     2.7750   2.7849   2.7929   2.8493   2.8589   2.9119   2.9842   3.0681
     3.1050   3.1621   3.1924   3.2886   3.3108   3.3179   3.3841   3.4264
     3.4413   3.4639   3.5068   3.5136   3.5748   3.5922   3.6519   3.6647
     3.6707   3.7032   3.7573   3.7581   3.7961   3.8140   3.8368   3.9080
     3.9102   3.9156   3.9377   3.9725   4.0157   4.0160   4.0256   4.0788
     4.0923   4.1176   4.1387   4.1447   4.1558   4.1816   4.2015   4.2209
     4.2249   4.2406   4.2648   4.2693   4.2795   4.2941   4.3177   4.3243
     4.3440   4.3909   4.4117   4.4229   4.4443   4.4656   4.4815   4.4816
     4.5153   4.5789   4.5828   4.5915   4.6123   4.6543   4.6664   4.6794
     4.7210   4.7320   4.7556   4.8106   4.8123   4.8660   4.8813   4.9127
     4.9543   4.9778   5.0015   5.0113   5.0296   5.0558   5.0994   5.1109
     5.1486   5.1901   5.1993   5.2506   5.2747   5.3006   5.3233   5.3608
     5.3797   5.4087   5.4478   5.4583   5.4670   5.4930   5.5124   5.5352
     5.5810   5.5894   5.6005   5.6188   5.6599   5.6705   5.6851   5.7553
     5.7628   5.7696   5.8026   5.8420   5.8698   5.8960   5.9063   5.9528
     5.9922   5.9940   6.0248   6.0627   6.0647   6.0752   6.0792   6.1531
     6.1705   6.1773   6.1855   6.2041   6.2154   6.2204   6.2301   6.2494
     6.2653   6.2979   6.3310   6.3647   6.3738   6.3915   6.4053   6.4102
     6.4356   6.4447   6.4799   6.4930   6.5165   6.5308   6.5648   6.5894
     6.6478   6.6611   6.7037   6.7103   6.8304   6.9009   7.0565   7.1588
     7.3105   7.3801   7.5688   7.5834   7.8962   8.2719   8.3436   8.6556
     9.1225   9.5026   9.5993   9.6730   9.8455   9.8994   9.9252  10.1181
    10.1418  10.4140  10.5513  10.5842  10.7317  11.0368  11.2436  11.4985
    11.5491  11.6985  11.9460  12.1919  12.2855  12.3446  12.3901  12.6904
    12.8311  12.9783  13.1386  13.2751  13.2769  13.3735  13.5422  13.6251
    13.8338  14.0746  14.1922  14.2399  14.3196  14.3643

          k = 0.2083 0.3368 0.0000 ( 27495 PWs)   bands (ev):

    -0.0152   0.3064   0.7753   1.3264   1.5899   1.7081   1.8301   1.8311
     1.9456   2.0089   2.0218   2.0864   2.1129   2.1326   2.1388   2.1783
     2.1826   2.2188   2.2315   2.2431   2.3319   2.3376   2.3560   2.3710
     2.4394   2.4677   2.5198   2.5292   2.5603   2.5779   2.5928   2.6454
     2.6576   2.6896   2.7542   2.8136   2.8175   2.8852   2.8935   2.9372
     2.9592   3.1393   3.2154   3.2254   3.2907   3.3117   3.3499   3.3551
     3.4330   3.4826   3.5072   3.5366   3.5512   3.5738   3.5852   3.6107
     3.6650   3.6859   3.7541   3.7727   3.8101   3.8530   3.8615   3.8869
     3.9018   3.9262   3.9370   3.9549   4.0237   4.0271   4.0465   4.0552
     4.0640   4.0830   4.1073   4.1596   4.1875   4.1999   4.2162   4.2363
     4.2453   4.2577   4.2647   4.2897   4.3102   4.3114   4.3353   4.3812
     4.3901   4.4132   4.4286   4.4388   4.4752   4.5483   4.5768   4.5778
     4.5904   4.6014   4.6308   4.6545   4.6568   4.6746   4.6991   4.7093
     4.7613   4.8106   4.8239   4.8572   4.9029   4.9057   4.9425   4.9488
     4.9814   4.9958   5.0041   5.0270   5.0473   5.0798   5.1038   5.1193
     5.1786   5.1881   5.2402   5.2449   5.2746   5.3614   5.3901   5.4136
     5.4330   5.4398   5.4520   5.4759   5.4820   5.5326   5.5462   5.5660
     5.6086   5.6462   5.6703   5.6973   5.7385   5.7524   5.7867   5.8087
     5.8307   5.8442   5.8990   5.9033   5.9220   5.9413   5.9699   5.9794
     6.0058   6.0071   6.0208   6.0397   6.0466   6.0816   6.1020   6.1391
     6.1401   6.1782   6.1950   6.1951   6.2033   6.2223   6.2345   6.2439
     6.2651   6.3063   6.3108   6.3444   6.3790   6.3867   6.4065   6.4174
     6.4305   6.4546   6.4593   6.4616   6.5127   6.5159   6.5589   6.5634
     6.6244   6.6391   6.6868   6.7004   6.7129   6.7901   6.8083   6.9039
     7.0369   7.0448   7.3472   7.6136   7.6836   8.1150   8.4011   8.5024
     8.9269   9.0183   9.0664   9.2275   9.4169   9.6257   9.8884   9.9212
    10.0438  10.2489  10.4614  10.5332  10.6278  10.8577  11.0518  11.0607
    11.3895  11.5827  11.8924  12.0836  12.0927  12.4525  12.5623  12.5977
    13.0402  13.1129  13.2452  13.3566  13.4833  13.6400  13.6606  13.7671
    13.9447  14.0391  14.0897  14.3829  14.4014  14.5890

          k = 0.2083 0.4330 0.0000 ( 27535 PWs)   bands (ev):

     0.3412   0.6461   1.0889   1.5163   1.5723   1.6072   1.7334   1.8180
     1.8302   1.9504   1.9605   2.0369   2.0716   2.0772   2.1040   2.1152
     2.1957   2.2404   2.2549   2.2913   2.3040   2.3573   2.3869   2.3923
     2.4434   2.4563   2.4620   2.4843   2.4884   2.5106   2.5702   2.5776
     2.6371   2.7008   2.7075   2.7508   2.7939   2.8263   2.8356   2.9983
     3.0535   3.1083   3.1701   3.1813   3.2441   3.2732   3.3154   3.3872
     3.3902   3.4221   3.4610   3.4900   3.4902   3.5388   3.5669   3.5912
     3.6492   3.6890   3.6930   3.7071   3.7239   3.8058   3.8414   3.8596
     3.8802   3.8989   3.9214   3.9235   3.9562   3.9908   4.0172   4.0245
     4.0275   4.0682   4.0735   4.0782   4.1449   4.1598   4.1892   4.2093
     4.2400   4.2413   4.2595   4.2871   4.3073   4.3393   4.3527   4.3722
     4.3827   4.4134   4.4163   4.4576   4.4867   4.5210   4.5398   4.5413
     4.5836   4.6418   4.6596   4.7016   4.7479   4.7533   4.7588   4.8231
     4.8426   4.8458   4.8583   4.9195   4.9279   4.9427   4.9565   4.9812
     5.0153   5.0262   5.0809   5.1088   5.1556   5.1768   5.1770   5.1965
     5.2199   5.2273   5.2584   5.3037   5.3066   5.3369   5.3415   5.3970
     5.4364   5.4787   5.4942   5.5345   5.5449   5.5725   5.6118   5.6211
     5.6414   5.6564   5.7299   5.7754   5.8015   5.8480   5.8670   5.8841
     5.9186   5.9497   5.9626   5.9863   6.0086   6.0166   6.0293   6.0392
     6.0423   6.0609   6.0683   6.0955   6.1003   6.1254   6.1341   6.1424
     6.1688   6.1739   6.1869   6.2004   6.2194   6.2259   6.2359   6.2708
     6.2724   6.2785   6.3100   6.3180   6.3510   6.3513   6.3840   6.3901
     6.4028   6.4165   6.4408   6.4436   6.4468   6.4760   6.4962   6.5091
     6.5482   6.5939   6.6019   6.6633   6.6833   6.7186   6.7233   6.8594
     6.9701   7.1301   7.2891   7.6103   7.7385   8.0673   8.1679   8.3636
     8.3998   8.4579   8.7159   8.9062   8.9643   9.3242   9.4101   9.7509
     9.9371  10.1395  10.4983  10.5359  10.7905  10.9618  10.9861  11.0082
    11.3909  11.6672  11.7688  11.8455  12.1725  12.3001  12.4106  12.4400
    12.6147  12.6152  12.9278  13.1747  13.4025  13.5676  13.6318  13.7243
    13.9242  14.1861  14.2797  14.2858  14.7181  14.7980

          k = 0.2083 0.5292 0.0000 ( 27542 PWs)   bands (ev):

     0.7500   1.0261   1.1687   1.4025   1.4232   1.6066   1.6937   1.7255
     1.8537   1.8898   1.9311   1.9418   1.9646   2.0855   2.0887   2.1380
     2.1459   2.2168   2.2308   2.2416   2.2893   2.3437   2.3478   2.4011
     2.4165   2.4284   2.4890   2.5322   2.5394   2.5924   2.6073   2.6192
     2.7087   2.7165   2.7552   2.7677   2.7829   2.8833   2.9314   2.9870
     3.0698   3.0935   3.1565   3.1813   3.1870   3.2477   3.2932   3.3116
     3.3517   3.3738   3.4162   3.4312   3.4650   3.4767   3.4911   3.5398
     3.5792   3.6008   3.6471   3.6665   3.6855   3.7886   3.8183   3.8486
     3.8518   3.8586   3.8929   3.9279   3.9449   3.9643   3.9700   3.9987
     4.0122   4.0298   4.0502   4.0633   4.1248   4.1370   4.1615   4.1703
     4.2008   4.2148   4.2266   4.2488   4.2596   4.2694   4.2950   4.3762
     4.4082   4.4103   4.4218   4.4415   4.5046   4.5299   4.5305   4.5553
     4.5663   4.6623   4.7196   4.7581   4.7700   4.8220   4.8354   4.8475
     4.8558   4.9084   4.9118   4.9238   4.9407   4.9468   4.9553   5.0317
     5.0459   5.0846   5.1317   5.1886   5.1887   5.2192   5.2294   5.2689
     5.2772   5.2797   5.3155   5.3591   5.3753   5.3884   5.4189   5.4616
     5.4625   5.4785   5.5266   5.5473   5.5564   5.5965   5.6532   5.6633
     5.6823   5.6871   5.7401   5.7672   5.7945   5.8125   5.8176   5.8329
     5.8776   5.9060   5.9145   5.9747   5.9897   5.9985   6.0242   6.0404
     6.0637   6.0645   6.0911   6.1080   6.1111   6.1272   6.1463   6.1587
     6.1602   6.1641   6.1900   6.1921   6.2252   6.2355   6.2406   6.2420
     6.2636   6.2770   6.2772   6.2898   6.3134   6.3473   6.3517   6.3914
     6.4409   6.4452   6.4516   6.4688   6.5030   6.5071   6.5628   6.5720
     6.5772   6.5937   6.6574   6.6613   6.6762   6.7982   6.9865   7.1045
     7.2570   7.2670   7.4134   7.5112   7.6024   7.7093   7.9025   7.9882
     8.0956   8.2153   8.2776   8.7359   8.9294   9.0116   9.1528   9.6531
     9.8854  10.0481  10.2264  10.5775  10.9050  11.1809  11.2912  11.3186
    11.5142  11.5188  11.7287  11.8405  11.9629  12.0149  12.3028  12.3516
    12.3762  12.5728  12.6339  12.9213  13.2235  13.4745  13.5128  13.7978
    13.8409  14.0124  14.1742  14.2951  14.5004  14.5132

          k = 0.2917 0.0481 0.0000 ( 27533 PWs)   bands (ev):

    -0.3680  -0.0348   0.4511   1.0199   1.4555   1.5407   1.6541   1.8360
     1.9269   1.9356   1.9443   1.9686   2.1028   2.2045   2.2445   2.3262
     2.3930   2.5204   2.5523   2.5643   2.5777   2.5964   2.6684   2.6990
     2.7749   2.7842   2.7957   2.8214   2.8533   2.8982   2.9216   2.9351
     2.9425   3.0441   3.0638   3.0968   3.1119   3.1539   3.1656   3.1790
     3.2335   3.2560   3.2802   3.3022   3.3250   3.3273   3.3483   3.4155
     3.4273   3.4532   3.4656   3.4693   3.4859   3.5125   3.5212   3.5939
     3.6199   3.6486   3.6889   3.6940   3.6944   3.7454   3.7760   3.8334
     3.8504   3.8564   3.8647   3.8941   3.8963   3.9156   3.9348   3.9771
     3.9804   4.0122   4.0330   4.0457   4.0604   4.0903   4.1009   4.1095
     4.1255   4.1568   4.1718   4.1817   4.1936   4.1967   4.2039   4.2607
     4.2652   4.2824   4.3029   4.3275   4.3627   4.3824   4.3900   4.4018
     4.4112   4.4378   4.4436   4.4578   4.4626   4.5956   4.6095   4.6159
     4.6227   4.6961   4.7259   4.7629   4.8222   4.8453   4.8497   4.9044
     4.9124   4.9635   4.9719   5.0019   5.0084   5.0356   5.0755   5.0936
     5.1157   5.1205   5.1406   5.1796   5.1827   5.2002   5.2229   5.2243
     5.2859   5.2986   5.3323   5.3364   5.3571   5.3582   5.3916   5.4379
     5.4536   5.5072   5.5216   5.5355   5.5504   5.5816   5.6352   5.6493
     5.6988   5.7259   5.7370   5.8222   5.8334   5.8765   5.9151   5.9196
     5.9646   5.9674   5.9962   6.0444   6.0553   6.0740   6.0750   6.0939
     6.1068   6.1112   6.1512   6.1576   6.1704   6.1845   6.1869   6.2081
     6.2287   6.2374   6.2453   6.2464   6.2554   6.2669   6.2717   6.2854
     6.2972   6.3185   6.3327   6.3534   6.3783   6.4641   6.4769   6.5111
     6.5383   6.5733   6.6078   6.6168   6.6333   6.6519   6.8435   7.0695
     7.3903   7.7620   8.1871   8.5058   8.9505   9.1543   9.2746   9.4317
     9.5967   9.8072  10.0619  10.1081  10.1142  10.3164  10.4055  10.5700
    10.6039  10.7540  10.8439  10.9613  10.9990  11.2135  11.2963  11.3199
    11.4309  11.5300  11.7078  11.8931  12.1669  12.2805  12.3413  12.6966
    12.9220  12.9953  13.0173  13.0179  13.1699  13.3817  13.5639  13.6370
    13.8094  13.9910  14.0033  14.0987  14.2445  14.3115

          k = 0.2917 0.1443 0.0000 ( 27530 PWs)   bands (ev):

    -0.2733   0.0571   0.5388   1.1032   1.4453   1.6202   1.6549   1.9077
     1.9173   1.9602   2.0072   2.0274   2.1383   2.1893   2.2044   2.3475
     2.4341   2.4353   2.4510   2.5195   2.5382   2.5686   2.6043   2.6253
     2.6464   2.6557   2.7144   2.8171   2.8213   2.8307   2.8465   2.8947
     2.9347   2.9368   2.9852   3.0257   3.0586   3.0861   3.1119   3.1637
     3.2039   3.2686   3.2936   3.3121   3.3451   3.3705   3.3712   3.4125
     3.4393   3.4560   3.4617   3.5057   3.5393   3.5591   3.5597   3.6360
     3.6485   3.6623   3.6768   3.6882   3.7306   3.7388   3.7486   3.7994
     3.8002   3.8452   3.8994   3.9116   3.9281   3.9460   3.9841   3.9866
     4.0505   4.0855   4.1024   4.1093   4.1228   4.1405   4.1424   4.1627
     4.1959   4.2084   4.2324   4.2449   4.2614   4.2784   4.2796   4.2985
     4.2991   4.3070   4.3331   4.3446   4.3606   4.3655   4.3886   4.3964
     4.4485   4.4568   4.4755   4.5010   4.5579   4.5775   4.6041   4.6216
     4.6456   4.7054   4.7457   4.7705   4.7768   4.7882   4.8285   4.8643
     4.8846   4.8862   4.9386   4.9500   4.9933   5.0205   5.0340   5.0606
     5.0777   5.1209   5.1408   5.1764   5.1884   5.2046   5.2365   5.2656
     5.2809   5.3083   5.3303   5.3407   5.3713   5.3908   5.4250   5.4411
     5.4770   5.5006   5.5013   5.5483   5.5624   5.5695   5.6398   5.6445
     5.7067   5.7251   5.7644   5.8030   5.8062   5.8301   5.8640   5.8655
     5.8748   5.9470   5.9604   6.0248   6.0374   6.0389   6.0701   6.0845
     6.0974   6.0978   6.1138   6.1279   6.1583   6.1743   6.2029   6.2200
     6.2306   6.2487   6.2507   6.2658   6.2772   6.2790   6.2878   6.3087
     6.3214   6.3432   6.3654   6.3890   6.3986   6.4820   6.4915   6.5128
     6.5534   6.5661   6.6201   6.6327   6.6435   6.6860   6.9249   7.0655
     7.4940   7.7765   8.1508   8.2736   8.3699   8.5301   8.6314   9.1128
     9.2911   9.6031   9.8273   9.8985  10.0792  10.2286  10.2739  10.5216
    10.6217  10.7043  10.8691  11.0464  11.1560  11.2897  11.3937  11.4103
    11.5980  11.8269  11.8561  11.9337  12.2272  12.3665  12.3864  12.6325
    12.9059  12.9941  13.0564  13.1261  13.3113  13.3779  13.4739  13.6656
    13.9658  13.9695  14.0718  14.2728  14.3064  14.3850

          k = 0.2917 0.2406 0.0000 ( 27522 PWs)   bands (ev):

    -0.0866   0.2374   0.7098   1.2644   1.4409   1.6634   1.7735   1.9118
     1.9508   2.0466   2.1078   2.1415   2.1658   2.1977   2.2007   2.2930
     2.3161   2.3263   2.3857   2.4620   2.4852   2.5089   2.5097   2.5372
     2.5513   2.5992   2.6826   2.6916   2.7309   2.7658   2.7812   2.8204
     2.8367   2.8721   2.8950   2.9233   2.9795   2.9984   3.0498   3.1143
     3.1929   3.1967   3.2507   3.2640   3.3062   3.3322   3.3686   3.4056
     3.4541   3.4595   3.4863   3.4880   3.5508   3.5823   3.5853   3.5953
     3.6085   3.6441   3.6952   3.7273   3.7467   3.7603   3.8196   3.8576
     3.8904   3.8915   3.9215   3.9387   3.9710   4.0352   4.0532   4.0548
     4.0663   4.0917   4.1084   4.1355   4.1385   4.1724   4.1754   4.1855
     4.2119   4.2338   4.2620   4.2645   4.2897   4.3138   4.3409   4.3499
     4.3582   4.3780   4.3813   4.4096   4.4364   4.4470   4.4591   4.4717
     4.5281   4.5543   4.5638   4.5806   4.6095   4.6279   4.6327   4.6457
     4.6842   4.7018   4.7020   4.7120   4.7355   4.7758   4.7950   4.8116
     4.8460   4.8835   4.9264   4.9600   4.9689   5.0078   5.0129   5.0386
     5.0690   5.1176   5.1238   5.1921   5.2006   5.2364   5.2563   5.2733
     5.3489   5.3591   5.3632   5.3939   5.4213   5.4354   5.4444   5.4747
     5.4969   5.5277   5.5320   5.5620   5.5752   5.5881   5.6164   5.6324
     5.6588   5.6670   5.6846   5.7683   5.7793   5.8158   5.8262   5.8400
     5.8635   5.8667   5.9262   5.9808   5.9828   6.0406   6.0447   6.0785
     6.0988   6.1183   6.1459   6.1534   6.1744   6.1851   6.1853   6.2164
     6.2224   6.2272   6.2575   6.2659   6.2812   6.2993   6.3319   6.3325
     6.3451   6.3682   6.4065   6.4119   6.4572   6.4816   6.5280   6.5321
     6.5520   6.5597   6.6253   6.6373   6.6613   6.7073   7.0720   7.0725
     7.4952   7.6057   7.6511   7.8156   7.9146   8.2540   8.5743   8.5797
     9.0192   9.1775   9.3185   9.4513   9.7537   9.9025   9.9147  10.1069
    10.4930  10.5535  10.7647  10.8740  11.0010  11.0829  11.2965  11.5453
    11.7826  12.0280  12.1211  12.3492  12.4783  12.4984  12.6506  12.9366
    12.9757  13.0760  13.1667  13.2625  13.3086  13.5243  13.7062  13.8267
    13.9554  14.1418  14.3730  14.5184  14.6822  14.7021

          k = 0.2917 0.3368 0.0000 ( 27531 PWs)   bands (ev):

     0.1858   0.4986   0.9540   1.4599   1.4902   1.6925   1.8936   1.9301
     1.9844   2.0384   2.1108   2.1114   2.1858   2.2151   2.2356   2.2486
     2.3181   2.3329   2.3628   2.3655   2.3757   2.4307   2.4338   2.4671
     2.5628   2.5868   2.5916   2.6208   2.6454   2.6638   2.6785   2.7284
     2.7645   2.7661   2.8680   2.8938   2.9183   2.9538   2.9893   3.0778
     3.0835   3.1696   3.1772   3.2461   3.2821   3.2914   3.3229   3.3421
     3.4119   3.4750   3.4862   3.5107   3.5186   3.5225   3.5661   3.5860
     3.6240   3.6613   3.6743   3.6992   3.7445   3.8141   3.8361   3.8494
     3.8922   3.8975   3.9202   3.9649   3.9944   3.9945   4.0214   4.0369
     4.0445   4.0704   4.0853   4.1068   4.1253   4.1358   4.1952   4.2250
     4.2320   4.2467   4.2530   4.2796   4.2897   4.3138   4.3321   4.3392
     4.3694   4.3986   4.4065   4.4401   4.4493   4.5035   4.5197   4.5361
     4.5843   4.5867   4.5952   4.6079   4.6436   4.6645   4.6741   4.6880
     4.7154   4.7320   4.7528   4.7843   4.8157   4.8615   4.8702   4.8793
     4.8953   4.9506   4.9569   4.9824   5.0013   5.0315   5.0744   5.0996
     5.1379   5.1400   5.1423   5.1935   5.2512   5.2675   5.2742   5.3283
     5.3518   5.3690   5.3696   5.4301   5.4758   5.4835   5.4863   5.5077
     5.5353   5.5667   5.5825   5.6236   5.6730   5.6742   5.6834   5.7018
     5.7039   5.7511   5.7619   5.7851   5.7939   5.8218   5.8337   5.8488
     5.8633   5.8958   5.9249   5.9514   5.9726   6.0352   6.0441   6.0594
     6.0743   6.1250   6.1335   6.1503   6.1663   6.1852   6.2038   6.2165
     6.2171   6.2344   6.2434   6.2502   6.2751   6.2944   6.3219   6.3393
     6.3791   6.3868   6.4065   6.4448   6.4486   6.4769   6.5002   6.5281
     6.5561   6.5712   6.5799   6.6464   6.6884   6.7860   6.9632   7.0526
     7.1246   7.1977   7.2156   7.6810   7.8626   7.8907   8.4281   8.4911
     8.5654   8.7093   8.7555   8.9833   9.3042   9.4021   9.6120   9.8262
    10.2202  10.2961  10.4217  10.8095  11.1013  11.1538  11.2808  11.2938
    11.4191  11.8597  12.1904  12.3050  12.3904  12.6587  12.7772  12.8747
    13.1661  13.4157  13.5230  13.7484  13.7663  13.9637  14.0429  14.2046
    14.2491  14.3760  14.4870  14.5456  14.5897  14.7353

          k = 0.2917 0.4330 0.0000 ( 27509 PWs)   bands (ev):

     0.5325   0.8263   1.2518   1.5140   1.7084   1.7531   1.7535   1.8921
     1.9131   1.9789   2.0177   2.0827   2.1293   2.1449   2.1528   2.2326
     2.3010   2.3164   2.3280   2.3573   2.4182   2.4610   2.4810   2.5225
     2.5239   2.5408   2.5661   2.5992   2.6023   2.6063   2.6513   2.6854
     2.7795   2.7948   2.8137   2.8252   2.8671   2.9315   2.9514   3.0897
     3.1081   3.1388   3.1648   3.2290   3.2320   3.2649   3.2905   3.3384
     3.3444   3.3850   3.4266   3.4528   3.4670   3.5107   3.5120   3.5480
     3.6049   3.6277   3.6588   3.6833   3.6977   3.7372   3.7527   3.7720
     3.8402   3.8817   3.8833   3.9064   3.9425   3.9834   3.9838   4.0156
     4.0210   4.0319   4.0680   4.0773   4.0804   4.1305   4.1571   4.1588
     4.1967   4.2176   4.2241   4.2477   4.2739   4.2766   4.3114   4.3151
     4.3203   4.3746   4.3777   4.4474   4.4713   4.4713   4.5325   4.5350
     4.5450   4.5884   4.6111   4.6812   4.7223   4.7247   4.7482   4.7791
     4.7892   4.8659   4.8761   4.8900   4.9352   4.9599   4.9610   4.9694
     4.9780   4.9819   5.0013   5.0228   5.0702   5.1159   5.1381   5.1418
     5.1801   5.1922   5.2351   5.2411   5.2784   5.2841   5.3147   5.3510
     5.3680   5.4079   5.4763   5.4765   5.4834   5.5015   5.6043   5.6070
     5.6087   5.6378   5.6462   5.6786   5.7057   5.7706   5.7819   5.7931
     5.8061   5.8251   5.8499   5.8680   5.8726   5.8743   5.9029   5.9344
     5.9628   5.9906   6.0007   6.0152   6.0402   6.0552   6.0712   6.0796
     6.1143   6.1176   6.1390   6.1587   6.1675   6.1731   6.1874   6.2084
     6.2333   6.2469   6.2604   6.2728   6.2731   6.2852   6.2933   6.3270
     6.3595   6.3938   6.4059   6.4065   6.4321   6.4493   6.4512   6.5060
     6.5224   6.5433   6.5660   6.5899   6.6063   6.6382   6.6894   6.7300
     6.9246   7.0480   7.2742   7.5485   7.7308   7.8008   7.9454   7.9759
     8.2576   8.2896   8.5464   8.5881   8.8934   9.1192   9.3417   9.6247
     9.7717  10.1321  10.2450  10.7222  10.7304  11.2132  11.2949  11.4933
    11.6755  11.8663  11.9904  12.2621  12.4261  12.4969  12.8149  12.8850
    13.0532  13.4296  13.5617  13.7718  13.7754  13.8456  13.9312  14.1196
    14.2921  14.4478  14.4540  14.8024  14.9445  14.9633

          k = 0.2917 0.5292 0.0000 ( 27525 PWs)   bands (ev):

     0.9341   1.1955   1.3532   1.5604   1.5753   1.6083   1.7428   1.8518
     1.8582   1.9866   2.0084   2.0150   2.0593   2.1098   2.1686   2.1984
     2.2247   2.2804   2.3081   2.3319   2.3550   2.4285   2.4666   2.4879
     2.5138   2.5477   2.5681   2.6211   2.6825   2.7236   2.7341   2.7667
     2.7884   2.8148   2.8468   2.8573   2.9034   2.9600   3.0564   3.0663
     3.0851   3.1120   3.1291   3.1882   3.2023   3.2066   3.2419   3.2568
     3.3072   3.3494   3.3797   3.3820   3.3985   3.4352   3.4416   3.4791
     3.5136   3.5388   3.6447   3.6674   3.6801   3.7212   3.7657   3.8069
     3.8189   3.8233   3.8526   3.8653   3.8954   3.9091   3.9292   3.9860
     3.9985   4.0211   4.0243   4.0516   4.0636   4.0673   4.1010   4.1349
     4.1586   4.1651   4.1878   4.1921   4.2580   4.2626   4.2646   4.2759
     4.3266   4.3719   4.4690   4.4877   4.4958   4.5346   4.5440   4.5613
     4.5685   4.6186   4.6695   4.6721   4.7177   4.7481   4.7572   4.7729
     4.7917   4.8211   4.9077   4.9279   4.9422   4.9476   5.0091   5.0173
     5.0352   5.0538   5.0856   5.1190   5.1600   5.1815   5.1834   5.2018
     5.2262   5.2467   5.3053   5.3309   5.3384   5.3494   5.3745   5.4317
     5.4456   5.4951   5.5244   5.5276   5.5521   5.5780   5.6045   5.6306
     5.6827   5.7127   5.7243   5.7353   5.7838   5.7904   5.8210   5.8409
     5.8498   5.8657   5.8926   5.8938   5.9184   5.9232   5.9366   5.9429
     5.9473   5.9800   5.9958   6.0047   6.0222   6.0348   6.0472   6.0594
     6.1053   6.1120   6.1374   6.1532   6.1661   6.1782   6.1948   6.2045
     6.2192   6.2252   6.2330   6.2553   6.2812   6.2907   6.3106   6.3240
     6.3399   6.3596   6.4022   6.4112   6.4342   6.4552   6.4576   6.4870
     6.5188   6.5431   6.5514   6.5612   6.6053   6.7524   6.8337   6.8498
     7.0251   7.0434   7.1384   7.3219   7.4503   7.5049   7.5593   7.6752
     7.7770   8.3177   8.3276   8.4070   8.5514   9.1958   9.2040   9.3501
     9.5610  10.0887  10.2360  10.4275  10.6503  10.9785  11.5650  11.6562
    11.7446  11.8667  12.2111  12.3797  12.5292  12.6837  12.7821  12.7855
    12.7924  13.1707  13.2656  13.6176  13.7553  13.7618  13.8822  13.9244
    14.1101  14.3619  14.5943  14.6729  14.6730  15.1234

          k = 0.3750 0.0481 0.0000 ( 27554 PWs)   bands (ev):

    -0.0847   0.2400   0.7140   1.0431   1.2720   1.2945   1.6525   1.7874
     2.0638   2.0744   2.1586   2.1598   2.1813   2.2210   2.3865   2.4494
     2.4967   2.5874   2.5948   2.6202   2.6957   2.7210   2.7240   2.7397
     2.7627   2.7939   2.8032   2.8653   2.9062   2.9332   2.9373   2.9947
     3.0233   3.0252   3.0848   3.1270   3.1437   3.1692   3.1889   3.2308
     3.2328   3.2595   3.2838   3.2873   3.2959   3.3240   3.3289   3.3631
     3.3984   3.4114   3.4521   3.4593   3.4713   3.4893   3.5050   3.5224
     3.5335   3.5777   3.5964   3.6614   3.6838   3.6933   3.7163   3.7227
     3.8376   3.8471   3.8619   3.8813   3.8854   3.9089   3.9339   3.9534
     3.9581   3.9930   4.0333   4.0459   4.0544   4.0973   4.1064   4.1106
     4.1487   4.1753   4.1978   4.2022   4.2038   4.2121   4.2586   4.2722
     4.2964   4.2984   4.3330   4.3422   4.3579   4.3789   4.4072   4.4400
     4.4511   4.4901   4.4994   4.5610   4.5976   4.6017   4.6045   4.6297
     4.6469   4.6525   4.6796   4.7168   4.7570   4.7936   4.8684   4.8999
     4.9237   4.9366   4.9395   4.9557   4.9785   5.0069   5.0097   5.0296
     5.0610   5.0616   5.0759   5.1056   5.1362   5.1588   5.1700   5.1786
     5.2168   5.2580   5.2646   5.2734   5.2992   5.3293   5.3531   5.3969
     5.4211   5.4287   5.4432   5.5063   5.5148   5.5439   5.5665   5.5884
     5.6053   5.6579   5.6682   5.7091   5.7092   5.7299   5.7329   5.7640
     5.8486   5.8937   5.9093   5.9292   5.9373   5.9464   5.9713   5.9955
     6.0275   6.0554   6.0590   6.0672   6.0911   6.1020   6.1187   6.1403
     6.1455   6.1467   6.1736   6.1742   6.1893   6.1928   6.2010   6.2301
     6.2435   6.2515   6.2742   6.3199   6.3243   6.3369   6.3378   6.4444
     6.4764   6.5421   6.5518   6.5974   6.6196   6.6487   6.7403   7.0980
     7.3598   7.7232   8.0551   8.5654   8.8097   9.2767   9.5098   9.6724
     9.8009   9.9117  10.1948  10.2084  10.3818  10.5683  10.5809  10.6072
    10.6579  10.9101  10.9661  11.0597  11.1384  11.2196  11.2814  11.4245
    11.5623  11.5725  12.0164  12.1813  12.2921  12.3725  12.4709  12.5364
    12.6542  12.9504  13.1358  13.1674  13.2720  13.3921  13.5092  13.5857
    13.7297  13.8723  14.1327  14.1404  14.3010  14.3806

          k = 0.3750 0.1443 0.0000 ( 27559 PWs)   bands (ev):

     0.0043   0.3250   0.7925   1.0801   1.3258   1.3420   1.6658   1.8475
     2.0489   2.1097   2.1636   2.2132   2.2388   2.2536   2.3835   2.3942
     2.4660   2.4959   2.5442   2.5709   2.6277   2.6866   2.6939   2.6986
     2.7138   2.7415   2.8055   2.8104   2.8461   2.9026   2.9284   2.9486
     2.9534   2.9807   3.0350   3.1121   3.1265   3.1754   3.2018   3.2081
     3.2349   3.2639   3.2754   3.2910   3.3120   3.3201   3.3510   3.3760
     3.3961   3.4610   3.4657   3.4970   3.5010   3.5234   3.5479   3.5582
     3.5745   3.5950   3.6157   3.6271   3.6425   3.7047   3.7156   3.7502
     3.8005   3.8460   3.8780   3.9004   3.9095   3.9453   3.9866   3.9931
     4.0213   4.0472   4.0535   4.0747   4.1281   4.1353   4.1464   4.1817
     4.1947   4.2021   4.2059   4.2242   4.2246   4.2450   4.2476   4.2795
     4.2951   4.2977   4.3100   4.3281   4.3704   4.4199   4.4334   4.4657
     4.4723   4.4945   4.5161   4.5333   4.5557   4.5602   4.5825   4.6106
     4.6374   4.7123   4.7131   4.7491   4.7768   4.7823   4.8317   4.8545
     4.8772   4.8857   4.9023   4.9028   4.9623   4.9691   5.0144   5.0195
     5.0316   5.0634   5.0750   5.1108   5.1148   5.1465   5.1735   5.1949
     5.2255   5.2442   5.2710   5.2730   5.2919   5.3455   5.3727   5.3931
     5.3931   5.4459   5.4519   5.4708   5.5043   5.5264   5.5529   5.5879
     5.5891   5.6051   5.6468   5.6509   5.7179   5.7270   5.7279   5.7621
     5.7744   5.8010   5.8268   5.8846   5.9277   5.9372   5.9418   5.9671
     6.0018   6.0285   6.0390   6.0799   6.0928   6.0947   6.1296   6.1494
     6.1552   6.1709   6.1748   6.1919   6.2293   6.2345   6.2525   6.2741
     6.2766   6.2855   6.2856   6.3391   6.3690   6.3807   6.4226   6.4779
     6.5274   6.5727   6.5898   6.6006   6.6486   6.7043   6.7422   7.1619
     7.3783   7.7974   8.0866   8.4807   8.6022   8.7208   8.8354   9.0297
     9.4787   9.5628   9.6510   9.8361   9.8734  10.2579  10.2718  10.6971
    10.7011  10.8767  11.0595  11.2481  11.2711  11.4514  11.5712  11.6655
    11.8489  11.9853  12.1167  12.1275  12.4324  12.4786  12.5553  12.6273
    12.7827  12.9148  13.1106  13.2624  13.4974  13.5571  13.5722  13.7529
    13.7954  13.8776  14.1437  14.1806  14.2630  14.5548

          k = 0.3750 0.2406 0.0000 ( 27548 PWs)   bands (ev):

     0.1799   0.4921   0.9458   1.1544   1.3918   1.4778   1.7012   1.9641
     2.0199   2.1547   2.2042   2.2802   2.2943   2.3164   2.3669   2.3737
     2.3876   2.4083   2.4555   2.4931   2.5721   2.5902   2.6243   2.6380
     2.6849   2.7158   2.7331   2.7774   2.7930   2.8307   2.8611   2.8953
     2.9054   2.9194   2.9699   3.0295   3.0754   3.0916   3.1113   3.1708
     3.2250   3.2428   3.2739   3.3063   3.3099   3.3467   3.3579   3.4080
     3.4367   3.4470   3.4731   3.5053   3.5072   3.5224   3.5375   3.5530
     3.6104   3.6175   3.6216   3.6308   3.6919   3.7140   3.7635   3.7923
     3.8147   3.8543   3.8712   3.9521   3.9726   3.9763   4.0054   4.0234
     4.0335   4.0746   4.0929   4.1116   4.1485   4.1539   4.1833   4.1912
     4.1989   4.2083   4.2187   4.2228   4.2242   4.2313   4.2648   4.2863
     4.3122   4.3323   4.3964   4.4060   4.4128   4.4400   4.4610   4.4753
     4.4990   4.5142   4.5479   4.5822   4.6010   4.6069   4.6216   4.6342
     4.6785   4.6853   4.6905   4.7179   4.7268   4.7346   4.7581   4.8189
     4.8336   4.8432   4.9154   4.9274   4.9281   4.9470   5.0154   5.0323
     5.0508   5.0742   5.0861   5.1558   5.1705   5.1872   5.2280   5.2301
     5.2381   5.2444   5.3037   5.3206   5.3270   5.3478   5.3557   5.3767
     5.3919   5.4107   5.4675   5.4718   5.4987   5.5065   5.5273   5.5294
     5.5582   5.5777   5.6218   5.6238   5.6398   5.6967   5.7148   5.7515
     5.7609   5.7909   5.7938   5.8621   5.8749   5.9156   5.9291   5.9559
     5.9747   6.0461   6.0528   6.0602   6.1063   6.1075   6.1496   6.1557
     6.1562   6.1730   6.2011   6.2034   6.2367   6.2517   6.2608   6.3053
     6.3348   6.3349   6.3639   6.3810   6.4072   6.4421   6.5015   6.5102
     6.5375   6.5978   6.6075   6.6351   6.6613   6.7708   6.7858   7.2825
     7.4283   7.8112   7.8948   7.9626   8.1449   8.2864   8.6163   8.7692
     8.8812   8.9239   9.0265   9.4171   9.4748   9.6860  10.0032  10.1180
    10.2791  10.6121  10.8934  10.9456  11.2047  11.3916  11.6991  11.9505
    12.0396  12.2769  12.5522  12.5660  12.6026  12.6303  12.7608  12.9477
    13.1309  13.1403  13.4392  13.5177  13.5275  13.6478  13.7190  13.7473
    13.8628  14.3591  14.3643  14.3999  14.5776  14.6355

          k = 0.3750 0.3368 0.0000 ( 27509 PWs)   bands (ev):

     0.4366   0.7346   1.1652   1.2655   1.4965   1.6688   1.7712   2.0123
     2.1074   2.1308   2.2086   2.2133   2.2805   2.3010   2.3048   2.3517
     2.3886   2.4123   2.4323   2.4925   2.5016   2.5341   2.5467   2.5781
     2.6296   2.6856   2.7064   2.7123   2.7201   2.7525   2.8041   2.8251
     2.8481   2.8981   2.9192   2.9766   3.0026   3.0186   3.0641   3.1065
     3.1880   3.1956   3.2211   3.2598   3.3187   3.3394   3.3480   3.3515
     3.3674   3.4166   3.4426   3.4858   3.4912   3.5396   3.5532   3.5865
[...]
     7.7939   7.9449   8.2670   8.5445   8.6216   8.7746   9.2502   9.4289
     9.5954   9.6425  10.3044  10.4572  10.5649  10.6672  11.3055  11.5769
    11.8827  12.0318  12.7614  12.7962  13.0298  13.0897  13.1713  13.4150
    13.5984  13.8514  13.8970  13.9955  14.0611  14.1665  14.2964  14.5524
    14.5961  14.7758  14.8797  14.9731  15.1633  15.5318

          k = 0.4583 0.0481 0.0000 ( 27552 PWs)   bands (ev):

     0.2537   0.5642   0.6351   0.9224   1.0167   1.3387   1.5526   1.8327
     2.0560   2.3086   2.3100   2.3405   2.3825   2.4119   2.4266   2.4686
     2.5430   2.5557   2.5689   2.5742   2.6551   2.6701   2.6807   2.6982
     2.8072   2.8124   2.8194   2.8601   2.9480   2.9505   3.0088   3.0440
     3.0692   3.0727   3.1161   3.1429   3.1675   3.1910   3.2022   3.2320
     3.2454   3.2927   3.2935   3.3253   3.3335   3.3507   3.3553   3.3818
     3.4062   3.4069   3.4424   3.4479   3.4484   3.4635   3.4760   3.4873
     3.4975   3.5024   3.5360   3.5690   3.5972   3.6019   3.7117   3.7504
     3.7733   3.7863   3.8051   3.8358   3.8435   3.8766   3.9004   3.9648
     3.9677   3.9918   4.0266   4.0683   4.0734   4.0987   4.1422   4.1588
     4.1675   4.1907   4.2040   4.2059   4.2272   4.2358   4.2443   4.2701
     4.2781   4.2942   4.3385   4.3568   4.3839   4.3928   4.4267   4.4422
     4.4514   4.4935   4.5198   4.6062   4.6219   4.6326   4.6363   4.6632
     4.6918   4.6976   4.7375   4.7608   4.8276   4.8289   4.8404   4.8509
     4.8788   4.9095   4.9276   4.9414   4.9621   4.9725   4.9837   4.9990
     5.0378   5.0466   5.0633   5.0882   5.1355   5.1419   5.1605   5.1931
     5.2012   5.2246   5.2383   5.2387   5.2623   5.2689   5.2874   5.3539
     5.3791   5.3898   5.4141   5.4507   5.4525   5.4536   5.4897   5.5110
     5.5352   5.5429   5.5769   5.6227   5.6274   5.6571   5.6752   5.6972
     5.6999   5.7106   5.8078   5.8243   5.8548   5.8652   5.8965   5.9397
     5.9593   5.9807   5.9955   5.9988   6.0530   6.0660   6.0669   6.0705
     6.0972   6.1084   6.1427   6.1521   6.1623   6.1676   6.1961   6.2143
     6.2210   6.2213   6.2839   6.3229   6.3287   6.3746   6.3753   6.4057
     6.4347   6.5194   6.5608   6.5809   6.5846   6.5919   6.8276   7.0631
     7.3798   7.6912   8.0608   8.4153   8.9281   9.2891   9.5702   9.8607
     9.8718  10.0902  10.2072  10.3143  10.3642  10.4599  10.6742  10.7284
    10.7898  10.8917  11.0333  11.1305  11.2359  11.2823  11.5722  11.6063
    11.7214  11.7566  11.8985  11.9043  12.2256  12.4558  12.6014  12.7295
    12.8884  13.0227  13.0516  13.1571  13.2142  13.3385  13.4562  13.5770
    13.8356  13.8724  13.8833  13.9137  14.4033  14.4121

          k = 0.4583 0.1443 0.0000 ( 27583 PWs)   bands (ev):

     0.3332   0.6380   0.6988   0.9789   1.0803   1.3800   1.6002   1.8465
     2.0786   2.2715   2.3061   2.3591   2.3683   2.4336   2.4614   2.4714
     2.4808   2.4997   2.5456   2.5733   2.6220   2.6595   2.6747   2.7227
     2.7802   2.7974   2.8115   2.8596   2.8874   2.9323   2.9383   2.9790
     3.0144   3.0692   3.0796   3.1258   3.1604   3.2007   3.2246   3.2394
     3.2676   3.2742   3.2747   3.3283   3.3344   3.3392   3.3674   3.3840
     3.4120   3.4218   3.4349   3.4617   3.4700   3.4765   3.4961   3.5088
     3.5316   3.5513   3.5685   3.5878   3.6231   3.6750   3.6998   3.7512
     3.7708   3.8157   3.8536   3.8763   3.8973   3.9150   3.9591   3.9938
     3.9948   4.0248   4.0548   4.0723   4.0729   4.1353   4.1456   4.1608
     4.1762   4.2032   4.2063   4.2131   4.2229   4.2262   4.2458   4.2464
     4.2670   4.2777   4.2987   4.3179   4.3305   4.3701   4.3806   4.4644
     4.4660   4.4883   4.5757   4.5986   4.6137   4.6409   4.6536   4.6601
     4.6840   4.6985   4.7195   4.7420   4.7758   4.8452   4.8509   4.8597
     4.8666   4.8750   4.8995   4.9258   4.9487   4.9866   4.9894   5.0081
     5.0356   5.0420   5.0660   5.1151   5.1158   5.1305   5.1489   5.1943
     5.2025   5.2107   5.2266   5.2341   5.2419   5.2611   5.2914   5.3205
     5.3305   5.3402   5.4085   5.4194   5.4289   5.4377   5.4492   5.4959
     5.5212   5.5357   5.5459   5.5985   5.6219   5.6320   5.6744   5.6913
     5.7057   5.7217   5.7452   5.7723   5.7858   5.8192   5.8359   5.9141
     5.9465   5.9558   5.9823   6.0104   6.0165   6.0248   6.0920   6.1039
     6.1081   6.1131   6.1454   6.1623   6.2052   6.2052   6.2601   6.2751
     6.2832   6.2973   6.3196   6.3649   6.3790   6.3892   6.4471   6.4602
     6.4984   6.5169   6.5995   6.6192   6.6299   6.6426   6.8543   7.0847
     7.4302   7.7312   8.1141   8.4530   8.7954   8.9362   9.0779   9.1198
     9.2794   9.4350   9.4446   9.8412  10.0122  10.1378  10.4072  10.4494
    10.7170  11.1102  11.2246  11.3203  11.4991  11.5990  11.7603  11.7672
    11.8738  12.0288  12.1876  12.2589  12.3868  12.6147  12.7644  12.7787
    12.9157  13.1300  13.1918  13.2289  13.3019  13.4517  13.6054  13.7380
    13.8594  14.0016  14.0372  14.1448  14.3398  14.4545

          k = 0.4583 0.2406 0.0000 ( 27580 PWs)   bands (ev):

     0.4900   0.7834   0.8245   1.0911   1.2051   1.4638   1.6938   1.8813
     2.1292   2.2343   2.3295   2.3450   2.3765   2.4123   2.4231   2.4282
     2.4839   2.5137   2.5648   2.5802   2.5881   2.5983   2.6209   2.7150
     2.7268   2.7430   2.7810   2.8148   2.8345   2.8556   2.8596   2.9374
     2.9568   3.0113   3.0805   3.0829   3.1308   3.1431   3.1966   3.2090
     3.2251   3.2284   3.2675   3.3245   3.3292   3.3733   3.3733   3.4097
     3.4348   3.4391   3.4732   3.4749   3.4963   3.5151   3.5383   3.5581
     3.5710   3.5765   3.6018   3.6253   3.6621   3.6962   3.7210   3.7345
     3.7459   3.7904   3.8494   3.9045   3.9165   3.9308   3.9785   3.9925
     4.0284   4.0391   4.0913   4.0969   4.1142   4.1297   4.1640   4.1650
     4.1783   4.1812   4.1995   4.2102   4.2187   4.2317   4.2374   4.2503
     4.2580   4.2679   4.2827   4.3281   4.3561   4.3720   4.4268   4.4297
     4.4626   4.4631   4.5662   4.5771   4.5910   4.6080   4.6523   4.6669
     4.6845   4.7038   4.7457   4.7790   4.7975   4.8282   4.8302   4.8586
     4.8861   4.8884   4.8947   4.9465   4.9649   4.9813   5.0147   5.0230
     5.0425   5.0588   5.0734   5.1336   5.1354   5.1487   5.1612   5.1619
     5.2044   5.2072   5.2286   5.2393   5.2426   5.2463   5.2835   5.3121
     5.3447   5.3557   5.3953   5.3989   5.4319   5.4343   5.4563   5.4744
     5.4746   5.5323   5.5360   5.5644   5.5680   5.6219   5.6452   5.6473
     5.6858   5.7430   5.7494   5.7628   5.7724   5.7981   5.8328   5.8764
     5.9107   5.9465   5.9686   5.9774   6.0563   6.0734   6.0890   6.1071
     6.1077   6.1401   6.1575   6.1653   6.2139   6.2190   6.3310   6.3375
     6.3623   6.3651   6.3834   6.3851   6.4164   6.4528   6.4785   6.5016
     6.5365   6.5482   6.6347   6.6371   6.6818   6.6917   6.9341   7.1469
     7.5254   7.8061   8.1133   8.1925   8.2981   8.4240   8.5150   8.6489
     8.6702   8.9665   9.0638   9.2985   9.3147   9.6973   9.8241  10.2245
    10.2643  10.5521  10.6809  11.0862  11.4507  11.5488  11.8310  12.0004
    12.2786  12.3561  12.7414  12.7791  12.8929  12.9051  13.0225  13.0938
    13.2484  13.2935  13.4404  13.4708  13.5232  13.7604  13.8026  13.9334
    14.0476  14.1221  14.1554  14.2434  14.5558  14.6061

          k = 0.4583 0.3368 0.0000 ( 27527 PWs)   bands (ev):

     0.7195   0.9953   1.0079   1.2570   1.3854   1.5912   1.8291   1.9455
     2.2125   2.2303   2.2907   2.3020   2.3254   2.3581   2.3992   2.4064
     2.4264   2.4604   2.4859   2.5377   2.5758   2.5987   2.6352   2.6614
     2.6943   2.7166   2.7451   2.7602   2.7758   2.8067   2.8372   2.8609
     2.9119   2.9197   3.0221   3.0566   3.0677   3.0852   3.1110   3.1803
     3.1989   3.2125   3.2234   3.2629   3.3166   3.3476   3.3607   3.3759
     3.4139   3.4389   3.4644   3.4861   3.5063   3.5187   3.5391   3.5921
     3.5984   3.6211   3.6245   3.6261   3.6935   3.7152   3.7190   3.7305
     3.7770   3.8108   3.8253   3.8558   3.8752   3.9226   3.9247   4.0057
     4.0126   4.0393   4.0686   4.0858   4.0980   4.1203   4.1352   4.1425
     4.1625   4.1711   4.1972   4.1988   4.1998   4.2142   4.2309   4.2319
     4.2389   4.2785   4.3153   4.3447   4.3626   4.3896   4.4067   4.4345
     4.4843   4.4912   4.5225   4.5408   4.5501   4.6397   4.6477   4.6860
     4.6992   4.7447   4.7651   4.8059   4.8114   4.8236   4.8723   4.8739
     4.8801   4.9186   4.9536   4.9914   4.9931   5.0342   5.0608   5.0785
     5.0866   5.1213   5.1514   5.1554   5.1855   5.1902   5.1909   5.2222
     5.2322   5.2586   5.2646   5.2887   5.3163   5.3275   5.3312   5.3762
     5.3811   5.3953   5.4132   5.4462   5.4578   5.4593   5.4951   5.5090
     5.5187   5.5555   5.5772   5.5938   5.6047   5.6454   5.6583   5.6788
     5.7124   5.7298   5.7692   5.7765   5.8072   5.8106   5.8582   5.8599
     5.9022   5.9470   5.9581   5.9632   6.0529   6.0731   6.1083   6.1229
     6.1393   6.1501   6.1819   6.1858   6.2335   6.2469   6.2977   6.3454
     6.3764   6.3866   6.3943   6.4092   6.4485   6.4781   6.4781   6.5174
     6.5466   6.5653   6.6060   6.6373   6.6971   6.7464   7.0627   7.2576
     7.5292   7.5833   7.6863   7.8154   7.8494   7.8704   8.0012   8.2137
     8.3495   8.4064   8.6487   8.7882   9.1464   9.2313   9.4964   9.5762
    10.0040  10.2982  10.3937  10.5645  10.9349  11.2966  11.6654  11.9309
    12.0633  12.3147  12.8732  13.1006  13.1795  13.2272  13.2589  13.3787
    13.5033  13.7660  13.9329  13.9392  14.0126  14.0691  14.2313  14.3146
    14.3736  14.3961  14.4229  14.7669  14.9151  14.9194

          k = 0.4583 0.4330 0.0000 ( 27524 PWs)   bands (ev):

     1.0132   1.2411   1.2641   1.4720   1.6100   1.7608   1.9944   2.0411
     2.0651   2.0842   2.1754   2.2538   2.2540   2.2722   2.2974   2.3272
     2.4028   2.4254   2.4503   2.5020   2.5440   2.5950   2.5974   2.6772
     2.6812   2.6945   2.7600   2.7748   2.7763   2.8074   2.8326   2.8378
     2.8538   2.8697   2.9300   2.9463   2.9961   3.0356   3.0824   3.0844
     3.1369   3.1783   3.1825   3.2422   3.2740   3.3072   3.3116   3.3144
     3.3603   3.3846   3.4238   3.4608   3.4793   3.5336   3.5473   3.5557
     3.6222   3.6273   3.6413   3.6611   3.6915   3.7079   3.7385   3.7627
     3.7795   3.8160   3.8363   3.8388   3.8624   3.8701   3.9443   3.9454
     3.9552   3.9988   4.0082   4.0266   4.0820   4.1114   4.1159   4.1401
     4.1464   4.1517   4.1688   4.1854   4.1981   4.2165   4.2290   4.2327
     4.2764   4.2881   4.2985   4.3106   4.3689   4.3806   4.3888   4.4334
     4.4538   4.4720   4.4947   4.5213   4.5236   4.6015   4.6546   4.6771
     4.7063   4.7098   4.7590   4.7698   4.8298   4.8758   4.9086   4.9277
     4.9634   4.9657   4.9925   5.0062   5.0293   5.0721   5.0993   5.1464
     5.1483   5.1584   5.1955   5.2238   5.2459   5.2525   5.2835   5.3125
     5.3245   5.3285   5.3555   5.3616   5.3871   5.4123   5.4260   5.4271
     5.4773   5.4823   5.5099   5.5524   5.5849   5.5931   5.6084   5.6326
     5.6368   5.6382   5.6651   5.6938   5.6944   5.7358   5.7457   5.7683
     5.7738   5.7970   5.8219   5.8690   5.8719   5.9257   5.9281   5.9438
     5.9478   5.9750   5.9823   6.0277   6.0328   6.0716   6.1345   6.1598
     6.1765   6.1903   6.2049   6.2081   6.2164   6.2565   6.2818   6.2865
     6.2970   6.3426   6.3544   6.3947   6.4003   6.4538   6.4615   6.4892
     6.4934   6.5403   6.5434   6.6071   6.7426   6.8480   6.9992   7.0642
     7.1195   7.2420   7.3240   7.3246   7.3416   7.5135   7.5806   7.8221
     8.0153   8.2148   8.2562   8.5500   8.8002   9.0922   9.1201   9.4482
     9.6588   9.9826  10.1754  10.4916  10.6180  10.9127  11.3090  11.6359
    12.0813  12.4921  12.5812  12.9114  13.0216  13.2739  13.4196  13.6769
    13.7495  14.1162  14.2003  14.2426  14.4639  14.6005  14.6715  14.7189
    14.8899  15.0053  15.1057  15.1926  15.2972  15.3864

          k = 0.4583 0.5292 0.0000 ( 27488 PWs)   bands (ev):

     1.3568   1.5099   1.5734   1.7262   1.7270   1.7935   1.8571   1.8950
     1.9649   1.9992   2.0884   2.1578   2.1665   2.1764   2.2776   2.3046
     2.3495   2.4502   2.4523   2.5109   2.5580   2.5813   2.5934   2.6144
     2.6542   2.7199   2.7199   2.7477   2.7783   2.7939   2.8126   2.8509
     2.8555   2.8987   2.9209   2.9296   2.9843   2.9975   3.0238   3.0593
     3.0934   3.1201   3.1380   3.2089   3.2373   3.2818   3.2843   3.3003
     3.3263   3.3366   3.4167   3.4278   3.4632   3.4790   3.5268   3.5335
     3.5802   3.6090   3.6327   3.6481   3.6792   3.7093   3.7495   3.7620
     3.7761   3.8140   3.8189   3.8736   3.8739   3.9207   3.9328   3.9343
     3.9836   3.9865   4.0058   4.0218   4.0522   4.0646   4.1050   4.1141
     4.1299   4.1570   4.1664   4.1756   4.1787   4.1942   4.2152   4.2567
     4.2612   4.2655   4.2962   4.3225   4.3595   4.3697   4.3791   4.3997
     4.4014   4.4515   4.5085   4.5383   4.5485   4.5688   4.5791   4.6450
     4.6874   4.7212   4.7490   4.8256   4.8423   4.9102   4.9107   4.9354
     4.9565   4.9731   5.0193   5.0300   5.0566   5.0697   5.1385   5.1520
     5.1818   5.2160   5.2317   5.2497   5.2650   5.2856   5.2994   5.3200
     5.3220   5.3522   5.4065   5.4168   5.4190   5.4242   5.4786   5.5472
     5.5559   5.5769   5.6003   5.6594   5.6607   5.6762   5.7094   5.7249
     5.7289   5.7473   5.7609   5.8051   5.8215   5.8669   5.8825   5.8891
     5.9167   5.9407   5.9429   5.9576   5.9826   6.0112   6.0284   6.0517
     6.0726   6.0859   6.1010   6.1223   6.1293   6.1546   6.1699   6.1784
     6.2139   6.2350   6.2391   6.2597   6.2743   6.2767   6.2827   6.2945
     6.3193   6.3460   6.3474   6.3797   6.3881   6.3963   6.4045   6.4093
     6.4634   6.4701   6.4869   6.5290   6.5940   6.6049   6.6690   6.7171
     6.7856   6.7994   6.8685   6.9980   7.1346   7.2656   7.3381   7.6221
     7.8920   8.0545   8.0796   8.4062   8.7455   8.9185   8.9784   9.2564
     9.6860   9.8790   9.9776  10.2001  10.7058  10.9388  10.9853  11.2425
    12.2162  12.3722  12.5407  12.7437  13.0801  13.3225  13.4663  13.8411
    14.1441  14.1701  14.2822  14.5495  14.6911  14.8397  14.9111  14.9290
    15.0355  15.1134  15.2617  15.3194  15.3584  15.4920

     the Fermi energy is     8.2691 ev

!    total energy              =   -3673.17834914 Ry
     estimated scf accuracy    <       0.00000065 Ry
     smearing contrib. (-TS)   =       0.04740448 Ry
     internal energy E=F+TS    =   -3673.22575363 Ry

     The total energy is F=E-TS. E is the sum of the following terms:
     one-electron contribution =  -16949.62068407 Ry
     hartree contribution      =    8849.18221686 Ry
     xc contribution           =   -1775.50329723 Ry
     ewald contribution        =    6202.71601081 Ry

     convergence has been achieved in  19 iterations

     negative rho (up, down):  9.786E-01 0.000E+00

     Forces acting on atoms (cartesian axes, Ry/au):

     atom    1 type  1   force =     0.00000000   -0.00165995    0.02669501
     atom    2 type  1   force =     0.00000000   -0.00166034    0.02669440
     atom    3 type  1   force =    -0.00000035    0.00341287   -0.01651757
     atom    4 type  1   force =     0.00000035    0.00341287   -0.01651757
     atom    5 type  1   force =     0.00000000   -0.00165263   -0.00965658
     atom    6 type  1   force =     0.00000000   -0.00165211   -0.00965619
     atom    7 type  1   force =     0.00000000    0.00057226   -0.00384720
     atom    8 type  1   force =     0.00000000    0.00057182   -0.00384721
     atom    9 type  1   force =    -0.00000012   -0.00054359    0.00460317
     atom   10 type  1   force =     0.00000012   -0.00054359    0.00460317
     atom   11 type  1   force =     0.00000000    0.00028909   -0.00084084
     atom   12 type  1   force =     0.00000000    0.00028900   -0.00084115
     atom   13 type  1   force =     0.00000012   -0.00045372   -0.00059371
     atom   14 type  1   force =    -0.00000012   -0.00045372   -0.00059371
     atom   15 type  1   force =     0.00000000    0.00019532   -0.00061564
     atom   16 type  1   force =    -0.00000027   -0.00018281    0.00036478
     atom   17 type  1   force =     0.00000027   -0.00018281    0.00036478
     atom   18 type  1   force =     0.00000000    0.00019515   -0.00061546
     atom   19 type  1   force =     0.00000000    0.00018425   -0.00036735
     atom   20 type  1   force =     0.00000000    0.00018430   -0.00036722
     atom   21 type  1   force =    -0.00000010   -0.00019434    0.00061304
     atom   22 type  1   force =     0.00000010   -0.00019434    0.00061304
     atom   23 type  1   force =     0.00000000    0.00045430    0.00059795
     atom   24 type  1   force =     0.00000000    0.00045451    0.00059782
     atom   25 type  1   force =    -0.00000012   -0.00028912    0.00084335
     atom   26 type  1   force =     0.00000012   -0.00028912    0.00084335
     atom   27 type  1   force =    -0.00000009   -0.00057013    0.00383924
     atom   28 type  1   force =     0.00000009   -0.00057013    0.00383924
     atom   29 type  1   force =     0.00000000    0.00054475   -0.00460944
     atom   30 type  1   force =     0.00000000    0.00054479   -0.00460950
     atom   31 type  1   force =     0.00000000   -0.00341125    0.01651461
     atom   32 type  1   force =     0.00000000   -0.00341072    0.01651567
     atom   33 type  1   force =    -0.00000016    0.00165085    0.00965397
     atom   34 type  1   force =     0.00000016    0.00165085    0.00965397
     atom   35 type  1   force =    -0.00000002    0.00165372   -0.02667711
     atom   36 type  1   force =     0.00000002    0.00165372   -0.02667711

     Total force =     0.067344     Total SCF correction =     0.001811
 
     init_run     :     23.77s CPU      3.63s WALL (       1 calls)
     electrons    :   1167.05s CPU    157.04s WALL (       1 calls)
     forces       :      6.88s CPU      0.89s WALL (       1 calls)

     Called by init_run:
     wfcinit      :     21.91s CPU      3.02s WALL (       1 calls)
     potinit      :      0.64s CPU      0.11s WALL (       1 calls)
     hinit0       :      0.73s CPU      0.23s WALL (       1 calls)

     Called by electrons:
     c_bands      :   1040.39s CPU    140.55s WALL (      20 calls)
     sum_band     :    117.07s CPU     15.20s WALL (      20 calls)
     v_of_rho     :      4.95s CPU      0.68s WALL (      20 calls)
     newd         :      2.72s CPU      0.39s WALL (      20 calls)
     mix_rho      :      1.37s CPU      0.18s WALL (      20 calls)

     Called by c_bands:
     init_us_2    :      3.35s CPU      0.47s WALL (     378 calls)
     cegterg      :    883.52s CPU    113.04s WALL (     180 calls)

     Called by *egterg:
     cdiaghg      :    323.45s CPU     41.27s WALL (     997 calls)
     h_psi        :    412.82s CPU     52.92s WALL (    1015 calls)
     s_psi        :     24.16s CPU      3.05s WALL (    1015 calls)
     g_psi        :      0.61s CPU      0.08s WALL (     826 calls)

     Called by h_psi:
     h_psi:calbec :     41.92s CPU      5.43s WALL (    1015 calls)
     vloc_psi     :    343.80s CPU     44.01s WALL (    1015 calls)
     add_vuspsi   :     25.63s CPU      3.26s WALL (    1015 calls)

     General routines
     calbec       :     62.75s CPU      8.11s WALL (    1231 calls)
     fft          :      2.74s CPU      0.38s WALL (     270 calls)
     ffts         :      0.24s CPU      0.03s WALL (      40 calls)
     fftw         :    401.37s CPU     50.97s WALL (  233670 calls)
     interpolate  :      0.34s CPU      0.05s WALL (      20 calls)
 
     Parallel routines
     fft_scatt_xy :     29.06s CPU      4.18s WALL (  233980 calls)
     fft_scatt_yz :    212.30s CPU     27.02s WALL (  233980 calls)
 
     PWSCF        :  19m59.16s CPU   2m43.03s WALL

 
   This run was terminated on:   2:33:39   8Sep2021            

=------------------------------------------------------------------------------=
   JOB DONE.
=------------------------------------------------------------------------------=
