
     Program PWSCF v.6.6 starts on  8Sep2021 at  5:21:49 

     This program is part of the open-source Quantum ESPRESSO suite
     for quantum simulation of materials; please cite
         "P. Giannozzi et al., J. Phys.:Condens. Matter 21 395502 (2009);
         "P. Giannozzi et al., J. Phys.:Condens. Matter 29 465901 (2017);
          URL http://www.quantum-espresso.org", 
     in publications or presentations arising from this work. More details at
     http://www.quantum-espresso.org/quote

     Parallel version (MPI & OpenMP), running on      96 processor cores
     Number of MPI processes:                12
     Threads/MPI process:                     8

     MPI processes distributed on     2 nodes
     K-points division:     npool     =       2
     R & G space division:  proc/nbgrp/npool/nimage =       6
     Fft bands division:     nmany     =       1
     Reading input from ../inputs/input_ausurf_72

     Current dimensions of program PWSCF are:
     Max number of different atomic species (ntypx) = 10
     Max number of k-points (npk) =  40000
     Max angular momentum in pseudopotentials (lmaxx) =  3

     Subspace diagonalization in iterative solution of the eigenvalue problem:
     one sub-group per band group will be used
     ELPA distributed-memory algorithm (size of sub-group:  2*  2 procs)

     Found symmetry operation: I + ( -0.5000  0.0000  0.0000)
     This is a supercell, fractional translations are disabled
 
     Parallelization info
     --------------------
     sticks:   dense  smooth     PW     G-vecs:    dense   smooth      PW
     Min        1000     455    125               237544    73431   10510
     Max        1001     456    126               237555    73452   10516
     Sum        6001    2733    755              1425285   440649   63085
 

     Title: 
      Ausurf                                                                    


     bravais-lattice index     =            8
     lattice parameter (alat)  =      11.1494  a.u.
     unit-cell volume          =   12888.9871 (a.u.)^3
     number of atoms/cell      =           72
     number of atomic types    =            1
     number of electrons       =       792.00
     number of Kohn-Sham states=          475
     kinetic-energy cutoff     =      40.0000  Ry
     charge density cutoff     =     350.0000  Ry
     convergence threshold     =      1.0E-06
     mixing beta               =       0.7000
     number of iterations used =            8  TF        mixing
     Exchange-correlation=  SLA  PW   PBE  PBE
                           (   1   4   3   4   0   0   0)

     celldm(1)=  11.149384  celldm(2)=   1.732051  celldm(3)=   5.369150
     celldm(4)=   0.000000  celldm(5)=   0.000000  celldm(6)=   0.000000

     crystal axes: (cart. coord. in units of alat)
               a(1) = (   1.000000   0.000000   0.000000 )  
               a(2) = (   0.000000   1.732051   0.000000 )  
               a(3) = (   0.000000   0.000000   5.369150 )  

     reciprocal axes: (cart. coord. in units 2 pi/alat)
               b(1) = (  1.000000  0.000000  0.000000 )  
               b(2) = (  0.000000  0.577350  0.000000 )  
               b(3) = (  0.000000  0.000000  0.186249 )  


     PseudoPot. # 1 for Au read from file:
     /marconi/home/userexternal/czeni000/dft_src/pseudo/Au.pbe-nd-van.UPF
     MD5 check sum: deb5c07af10777505a79e28f5b4b4115
     Pseudo is Ultrasoft + core correction, Zval = 11.0
     Generated by new atomic code, or converted to UPF format
     Using radial grid of  985 points,  3 beta functions with: 
                l(1) =   1
                l(2) =   2
                l(3) =   2
     Q(r) pseudized with  8 coefficients,  rinner =    1.100   1.100   1.100
                                                       1.100   1.100

     atomic species   valence    mass     pseudopotential
        Au            11.00   196.96000     Au( 1.00)

      2 Sym. Ops. (no inversion) found



   Cartesian axes

     site n.     atom                  positions (alat units)
         1           Au  tau(   1) = (   0.0000000   0.0000000   0.0000000  )
         2           Au  tau(   2) = (   0.5000000   0.0000000   0.0000000  )
         3           Au  tau(   3) = (   0.0000000   0.8660254   0.0000000  )
         4           Au  tau(   4) = (   0.5000000   0.8660254   0.0000000  )
         5           Au  tau(   5) = (   0.2500000   0.1443376   0.4082483  )
         6           Au  tau(   6) = (   0.7500000   0.1443376   0.4082483  )
         7           Au  tau(   7) = (   0.2500000   1.0103631   0.4082483  )
         8           Au  tau(   8) = (   0.7500000   1.0103631   0.4082483  )
         9           Au  tau(   9) = (   0.5000000   0.5773503   0.4082483  )
        10           Au  tau(  10) = (   0.5000000   1.4433756   0.4082483  )
        11           Au  tau(  11) = (   1.0000000   0.5773503   0.4082483  )
        12           Au  tau(  12) = (   1.0000000   1.4433756   0.4082483  )
        13           Au  tau(  13) = (   0.5000000   0.2886751   0.8164966  )
        14           Au  tau(  14) = (   1.0000000   0.2886751   0.8164966  )
        15           Au  tau(  15) = (   0.2500000   0.7216878   0.8164966  )
        16           Au  tau(  16) = (   0.7500000   0.7216878   0.8164966  )
        17           Au  tau(  17) = (   0.5000000   1.1547005   0.8164966  )
        18           Au  tau(  18) = (   1.0000000   1.1547005   0.8164966  )
        19           Au  tau(  19) = (   0.2500000   1.5877132   0.8164966  )
        20           Au  tau(  20) = (   0.7500000   1.5877132   0.8164966  )
        21           Au  tau(  21) = (   0.0000000   0.0000000   1.2247449  )
        22           Au  tau(  22) = (   0.5000000   0.0000000   1.2247449  )
        23           Au  tau(  23) = (   0.2500000   0.4330127   1.2247449  )
        24           Au  tau(  24) = (   0.5000000   0.8660254   1.2247449  )
        25           Au  tau(  25) = (   0.2500000   1.2990381   1.2247449  )
        26           Au  tau(  26) = (   0.7500000   0.4330127   1.2247449  )
        27           Au  tau(  27) = (   0.7500000   1.2990381   1.2247449  )
        28           Au  tau(  28) = (   0.0000000   0.8660254   1.2247449  )
        29           Au  tau(  29) = (   0.2500000   1.0103631   1.6329932  )
        30           Au  tau(  30) = (   1.0000000   0.5773503   1.6329932  )
        31           Au  tau(  31) = (   0.2500000   0.1443376   1.6329932  )
        32           Au  tau(  32) = (   0.7500000   0.1443376   1.6329932  )
        33           Au  tau(  33) = (   0.7500000   1.0103631   1.6329932  )
        34           Au  tau(  34) = (   0.5000000   0.5773503   1.6329932  )
        35           Au  tau(  35) = (   0.5000000   1.4433756   1.6329932  )
        36           Au  tau(  36) = (   1.0000000   1.4433756   1.6329932  )
        37           Au  tau(  37) = (   0.5000000   0.2886751   2.0412415  )
        38           Au  tau(  38) = (   1.0000000   0.2886751   2.0412415  )
        39           Au  tau(  39) = (   0.2500000   0.7216878   2.0412415  )
        40           Au  tau(  40) = (   0.7500000   0.7216878   2.0412415  )
        41           Au  tau(  41) = (   0.7500000   1.5877132   2.0412415  )
        42           Au  tau(  42) = (   0.5000000   1.1547005   2.0412415  )
        43           Au  tau(  43) = (   1.0000000   1.1547005   2.0412415  )
        44           Au  tau(  44) = (   0.2500000   1.5877132   2.0412415  )
        45           Au  tau(  45) = (   0.0000000   0.0000000   2.4494897  )
        46           Au  tau(  46) = (   0.0000000   0.8660254   2.4494897  )
        47           Au  tau(  47) = (   0.5000000   0.0000000   2.4494897  )
        48           Au  tau(  48) = (   0.5000000   0.8660254   2.4494897  )
        49           Au  tau(  49) = (   0.2500000   0.4330127   2.4494897  )
        50           Au  tau(  50) = (   0.7500000   0.4330127   2.4494897  )
        51           Au  tau(  51) = (   0.2500000   1.2990381   2.4494897  )
        52           Au  tau(  52) = (   0.7500000   1.2990381   2.4494897  )
        53           Au  tau(  53) = (   1.0000000   1.4433756   2.8577380  )
        54           Au  tau(  54) = (   0.2500000   0.1443376   2.8577380  )
        55           Au  tau(  55) = (   0.2500000   1.0103631   2.8577380  )
        56           Au  tau(  56) = (   0.7500000   0.1443376   2.8577380  )
        57           Au  tau(  57) = (   0.7500000   1.0103631   2.8577380  )
        58           Au  tau(  58) = (   0.5000000   0.5773503   2.8577380  )
        59           Au  tau(  59) = (   0.5000000   1.4433756   2.8577380  )
        60           Au  tau(  60) = (   1.0000000   0.5773503   2.8577380  )
        61           Au  tau(  61) = (   0.7500000   1.5877132   3.2659863  )
        62           Au  tau(  62) = (   0.5000000   0.2886751   3.2659863  )
        63           Au  tau(  63) = (   0.5000000   1.1547005   3.2659863  )
        64           Au  tau(  64) = (   1.0000000   0.2886751   3.2659863  )
        65           Au  tau(  65) = (   1.0000000   1.1547005   3.2659863  )
        66           Au  tau(  66) = (   0.2500000   0.7216878   3.2659863  )
        67           Au  tau(  67) = (   0.2500000   1.5877132   3.2659863  )
        68           Au  tau(  68) = (   0.7500000   0.7216878   3.2659863  )
        69           Au  tau(  69) = (   0.2500000   0.4330127   3.6742346  )
        70           Au  tau(  70) = (   0.2500000   1.2990381   3.6742346  )
        71           Au  tau(  71) = (   0.7500000   0.4330127   3.6742346  )
        72           Au  tau(  72) = (   0.7500000   1.2990381   3.6742346  )

     number of k points=    18  Marzari-Vanderbilt smearing, width (Ry)=  0.0500
                       cart. coord. in units 2pi/alat
        k(    1) = (   0.0416667   0.0481125   0.0000000), wk =   0.1111111
        k(    2) = (   0.0416667   0.1443376   0.0000000), wk =   0.1111111
        k(    3) = (   0.0416667   0.2405626   0.0000000), wk =   0.1111111
        k(    4) = (   0.1250000   0.0481125   0.0000000), wk =   0.1111111
        k(    5) = (   0.1250000   0.1443376   0.0000000), wk =   0.1111111
        k(    6) = (   0.1250000   0.2405626   0.0000000), wk =   0.1111111
        k(    7) = (   0.2083333   0.0481125   0.0000000), wk =   0.1111111
        k(    8) = (   0.2083333   0.1443376   0.0000000), wk =   0.1111111
        k(    9) = (   0.2083333   0.2405626   0.0000000), wk =   0.1111111
        k(   10) = (   0.2916667   0.0481125   0.0000000), wk =   0.1111111
        k(   11) = (   0.2916667   0.1443376   0.0000000), wk =   0.1111111
        k(   12) = (   0.2916667   0.2405626   0.0000000), wk =   0.1111111
        k(   13) = (   0.3750000   0.0481125   0.0000000), wk =   0.1111111
        k(   14) = (   0.3750000   0.1443376   0.0000000), wk =   0.1111111
        k(   15) = (   0.3750000   0.2405626   0.0000000), wk =   0.1111111
        k(   16) = (   0.4583333   0.0481125   0.0000000), wk =   0.1111111
        k(   17) = (   0.4583333   0.1443376   0.0000000), wk =   0.1111111
        k(   18) = (   0.4583333   0.2405626   0.0000000), wk =   0.1111111

     Dense  grid:  1425285 G-vectors     FFT dimensions: (  72, 120, 360)

     Smooth grid:   440649 G-vectors     FFT dimensions: (  45,  80, 243)

     Estimated max dynamical RAM per process >       1.48 GB

     Estimated total dynamical RAM >      17.71 GB

     Initial potential from superposition of free atoms

     starting charge  791.16394, renormalised to  792.00000

     negative rho (up, down):  1.916E+00 0.000E+00
     Starting wfcs are  648 randomized atomic wfcs

     total cpu time spent up to now is       18.2 secs

     Self-consistent Calculation

     iteration #  1     ecut=    40.00 Ry     beta= 0.70
     Davidson diagonalization with overlap
     ethr =  1.00E-02,  avg # of iterations =  2.6

     Threshold (ethr) on eigenvalues was too large:
     Diagonalizing with lowered threshold

     Davidson diagonalization with overlap
     ethr =  3.34E-04,  avg # of iterations =  3.1

     negative rho (up, down):  1.820E+00 0.000E+00

     total cpu time spent up to now is       92.7 secs

     total energy              =   -7346.27248286 Ry
     estimated scf accuracy    <       3.14833718 Ry

     iteration #  2     ecut=    40.00 Ry     beta= 0.70
     Davidson diagonalization with overlap
     ethr =  3.98E-04,  avg # of iterations =  1.0

     negative rho (up, down):  1.926E+00 0.000E+00

     total cpu time spent up to now is      121.7 secs

     total energy              =   -7346.41233970 Ry
     estimated scf accuracy    <       1.40721510 Ry

     iteration #  3     ecut=    40.00 Ry     beta= 0.70
     Davidson diagonalization with overlap
     ethr =  1.78E-04,  avg # of iterations =  2.7

     negative rho (up, down):  2.029E+00 0.000E+00

     total cpu time spent up to now is      156.0 secs

     total energy              =   -7346.40390801 Ry
     estimated scf accuracy    <       0.82284692 Ry

     iteration #  4     ecut=    40.00 Ry     beta= 0.70
     Davidson diagonalization with overlap
     ethr =  1.04E-04,  avg # of iterations =  7.6

     negative rho (up, down):  2.026E+00 0.000E+00

     total cpu time spent up to now is      199.3 secs

     total energy              =   -7346.39076225 Ry
     estimated scf accuracy    <       0.40459438 Ry

     iteration #  5     ecut=    40.00 Ry     beta= 0.70
     Davidson diagonalization with overlap
     ethr =  5.11E-05,  avg # of iterations = 10.6

     negative rho (up, down):  1.975E+00 0.000E+00

     total cpu time spent up to now is      247.0 secs

     total energy              =   -7346.38492873 Ry
     estimated scf accuracy    <       0.24807912 Ry

     iteration #  6     ecut=    40.00 Ry     beta= 0.70
     Davidson diagonalization with overlap
     ethr =  3.13E-05,  avg # of iterations =  8.7

     negative rho (up, down):  1.978E+00 0.000E+00

     total cpu time spent up to now is      291.1 secs

     total energy              =   -7346.37775207 Ry
     estimated scf accuracy    <       0.23585637 Ry

     iteration #  7     ecut=    40.00 Ry     beta= 0.70
     Davidson diagonalization with overlap
     ethr =  2.98E-05,  avg # of iterations =  5.1

     negative rho (up, down):  1.988E+00 0.000E+00

     total cpu time spent up to now is      330.1 secs

     total energy              =   -7346.36832067 Ry
     estimated scf accuracy    <       0.24035962 Ry

     iteration #  8     ecut=    40.00 Ry     beta= 0.70
     Davidson diagonalization with overlap
     ethr =  2.98E-05,  avg # of iterations =  4.8

     negative rho (up, down):  2.019E+00 0.000E+00

     total cpu time spent up to now is      367.7 secs

     total energy              =   -7346.35432703 Ry
     estimated scf accuracy    <       0.14729397 Ry

     iteration #  9     ecut=    40.00 Ry     beta= 0.70
     Davidson diagonalization with overlap
     c_bands:  1 eigenvalues not converged
     ethr =  1.86E-05,  avg # of iterations = 12.9

     negative rho (up, down):  2.009E+00 0.000E+00

     total cpu time spent up to now is      430.0 secs

     total energy              =   -7346.37158932 Ry
     estimated scf accuracy    <       0.19401349 Ry

     iteration # 10     ecut=    40.00 Ry     beta= 0.70
     Davidson diagonalization with overlap
     ethr =  1.86E-05,  avg # of iterations =  1.1

     negative rho (up, down):  2.039E+00 0.000E+00

     total cpu time spent up to now is      459.2 secs

     total energy              =   -7346.36184978 Ry
     estimated scf accuracy    <       0.12140163 Ry

     iteration # 11     ecut=    40.00 Ry     beta= 0.70
     Davidson diagonalization with overlap
     ethr =  1.53E-05,  avg # of iterations =  1.4

     negative rho (up, down):  2.044E+00 0.000E+00

     total cpu time spent up to now is      490.4 secs

     total energy              =   -7346.36895252 Ry
     estimated scf accuracy    <       0.06447582 Ry

     iteration # 12     ecut=    40.00 Ry     beta= 0.70
     Davidson diagonalization with overlap
     ethr =  8.14E-06,  avg # of iterations =  2.2

     negative rho (up, down):  2.069E+00 0.000E+00

     total cpu time spent up to now is      525.1 secs

     total energy              =   -7346.35287266 Ry
     estimated scf accuracy    <       0.12541713 Ry

     iteration # 13     ecut=    40.00 Ry     beta= 0.70
     Davidson diagonalization with overlap
     c_bands:  1 eigenvalues not converged
     c_bands:  1 eigenvalues not converged
     ethr =  8.14E-06,  avg # of iterations = 11.4

     negative rho (up, down):  2.024E+00 0.000E+00

     total cpu time spent up to now is      577.2 secs

     total energy              =   -7346.35450775 Ry
     estimated scf accuracy    <       0.01287544 Ry

     iteration # 14     ecut=    40.00 Ry     beta= 0.70
     Davidson diagonalization with overlap
     ethr =  1.63E-06,  avg # of iterations = 10.5

     negative rho (up, down):  2.008E+00 0.000E+00

     total cpu time spent up to now is      653.0 secs

     total energy              =   -7346.35801082 Ry
     estimated scf accuracy    <       0.03436328 Ry

     iteration # 15     ecut=    40.00 Ry     beta= 0.70
     Davidson diagonalization with overlap
     ethr =  1.63E-06,  avg # of iterations =  2.4

     negative rho (up, down):  1.987E+00 0.000E+00

     total cpu time spent up to now is      687.4 secs

     total energy              =   -7346.35534905 Ry
     estimated scf accuracy    <       0.01646780 Ry

     iteration # 16     ecut=    40.00 Ry     beta= 0.70
     Davidson diagonalization with overlap
     ethr =  1.63E-06,  avg # of iterations =  8.4

     negative rho (up, down):  1.970E+00 0.000E+00

     total cpu time spent up to now is      738.6 secs

     total energy              =   -7346.35661269 Ry
     estimated scf accuracy    <       0.00046402 Ry

     iteration # 17     ecut=    40.00 Ry     beta= 0.70
     Davidson diagonalization with overlap
     ethr =  5.86E-08,  avg # of iterations =  9.8

     negative rho (up, down):  1.960E+00 0.000E+00

     total cpu time spent up to now is      795.5 secs

     total energy              =   -7346.35660327 Ry
     estimated scf accuracy    <       0.00013099 Ry

     iteration # 18     ecut=    40.00 Ry     beta= 0.70
     Davidson diagonalization with overlap
     ethr =  1.65E-08,  avg # of iterations = 12.6

     negative rho (up, down):  1.958E+00 0.000E+00

     total cpu time spent up to now is      851.0 secs

     total energy              =   -7346.35666178 Ry
     estimated scf accuracy    <       0.00002625 Ry

     iteration # 19     ecut=    40.00 Ry     beta= 0.70
     Davidson diagonalization with overlap
     ethr =  3.31E-09,  avg # of iterations =  5.3

     negative rho (up, down):  1.957E+00 0.000E+00

     total cpu time spent up to now is      894.4 secs

     total energy              =   -7346.35668962 Ry
     estimated scf accuracy    <       0.00000344 Ry

     iteration # 20     ecut=    40.00 Ry     beta= 0.70
     Davidson diagonalization with overlap
     ethr =  4.34E-10,  avg # of iterations =  4.0

     negative rho (up, down):  1.957E+00 0.000E+00

     total cpu time spent up to now is      932.6 secs

     total energy              =   -7346.35669781 Ry
     estimated scf accuracy    <       0.00000278 Ry

     iteration # 21     ecut=    40.00 Ry     beta= 0.70
     Davidson diagonalization with overlap
     ethr =  3.51E-10,  avg # of iterations =  3.4

     negative rho (up, down):  1.957E+00 0.000E+00

     total cpu time spent up to now is      968.6 secs

     End of self-consistent calculation

          k = 0.0417 0.0481 0.0000 ( 55126 PWs)   bands (ev):

    -0.8129  -0.4712   0.0255   0.5492   0.6015   0.8363   0.9651   1.1251
     1.2161   1.2464   1.4435   1.5574   1.5650   1.5684   1.6037   1.6144
     1.6196   1.7229   1.8477   1.8507   1.8522   1.8547   1.8642   1.8684
     1.9218   2.0303   2.0338   2.0407   2.1221   2.1228   2.1255   2.1517
     2.1521   2.1637   2.1715   2.2259   2.2294   2.2383   2.2442   2.2807
     2.3148   2.3181   2.3230   2.3338   2.3504   2.3812   2.3917   2.4116
     2.4166   2.4302   2.4408   2.4759   2.4837   2.4887   2.4953   2.5152
     2.5246   2.5464   2.5803   2.6022   2.6234   2.6416   2.6673   2.6688
     2.6847   2.7238   2.7341   2.7591   2.7690   2.7907   2.8248   2.8574
     2.9327   2.9405   2.9613   2.9795   3.0562   3.0695   3.0815   3.0835
     3.1172   3.1480   3.1696   3.1762   3.1947   3.2140   3.2337   3.2612
     3.2909   3.3218   3.3244   3.3319   3.3437   3.3608   3.3695   3.3759
     3.4219   3.4496   3.4594   3.4758   3.4825   3.5091   3.5121   3.5481
     3.5628   3.5670   3.5869   3.6019   3.6076   3.6212   3.6469   3.6482
     3.6595   3.6847   3.6908   3.7320   3.7328   3.7657   3.7744   3.7790
     3.7921   3.7940   3.8015   3.8282   3.8525   3.8650   3.8698   3.8698
     3.8936   3.8954   3.9021   3.9073   3.9194   3.9261   3.9346   3.9390
     3.9496   3.9551   3.9554   3.9610   3.9637   3.9802   3.9879   3.9941
     4.0119   4.0262   4.0425   4.0733   4.0802   4.0868   4.0953   4.0993
     4.1078   4.1100   4.1179   4.1338   4.1400   4.1646   4.1655   4.1658
     4.1744   4.1755   4.1832   4.1890   4.1906   4.2009   4.2067   4.2186
     4.2379   4.2550   4.3003   4.3058   4.3144   4.3184   4.3219   4.3329
     4.3480   4.3578   4.3673   4.3704   4.3808   4.3828   4.3944   4.4297
     4.4315   4.4335   4.4526   4.4660   4.4685   4.4917   4.5097   4.5128
     4.5189   4.5249   4.5281   4.5336   4.5363   4.5974   4.6326   4.6592
     4.6927   4.6992   4.7083   4.7184   4.7251   4.7466   4.7515   4.7644
     4.7728   4.8138   4.8721   4.8810   4.8820   4.8919   4.8962   4.8990
     4.9029   4.9299   4.9596   4.9749   4.9810   4.9914   4.9990   5.0117
     5.0295   5.0306   5.0353   5.0604   5.0821   5.1088   5.1116   5.1244
     5.1280   5.1513   5.1540   5.1908   5.2014   5.2161   5.2236   5.2292
     5.2317   5.2364   5.2603   5.2615   5.2659   5.2704   5.2755   5.2829
     5.2962   5.3189   5.3270   5.3322   5.3344   5.3403   5.3473   5.3510
     5.3545   5.3751   5.4063   5.4199   5.4280   5.4313   5.4608   5.4791
     5.4888   5.4962   5.5163   5.5164   5.5400   5.5453   5.5510   5.5548
     5.5725   5.6062   5.6110   5.6411   5.6478   5.6786   5.6971   5.6999
     5.7302   5.7482   5.7566   5.7622   5.7907   5.8117   5.8305   5.8486
     5.8598   5.8654   5.8929   5.8971   5.9060   5.9251   5.9599   5.9770
     5.9780   5.9954   5.9962   6.0131   6.0738   6.0942   6.0977   6.1167
     6.1179   6.1336   6.1429   6.1658   6.1749   6.1792   6.1962   6.2013
     6.2064   6.2195   6.2314   6.2339   6.2347   6.2528   6.2598   6.2670
     6.2938   6.3038   6.3140   6.3279   6.3362   6.3461   6.3461   6.3477
     6.3609   6.3717   6.3762   6.3777   6.3789   6.3905   6.3922   6.3924
     6.3956   6.3980   6.3989   6.4286   6.4319   6.4325   6.4347   6.4386
     6.4516   6.4562   6.4651   6.4677   6.4864   6.5117   6.5126   6.5342
     6.5459   6.5486   6.5645   6.5714   6.5748   6.5869   6.5875   6.5956
     6.5990   6.6010   6.6085   6.6331   6.6381   6.6526   6.6704   6.6968
     6.6974   6.7188   6.7245   6.7564   6.7604   6.8335   6.8528   6.8763
     6.9122   6.9127   6.9557   7.0798   7.5265   7.6699   7.7396   7.7970
     7.7987   7.8522   8.0376   8.0476   8.1461   8.2409   8.2771   8.3596
     8.4533   8.4655   8.5507   8.5856   8.7138   8.7751   8.7833   8.7921
     8.9272   8.9468   8.9508   9.0402   9.0557   9.1042   9.1965   9.2727
     9.2777   9.2965   9.3531   9.4610   9.5885   9.6441   9.6612   9.7175
     9.7598   9.8305   9.9042   9.9108   9.9361   9.9944   9.9979  10.0744
    10.5293  10.6510  10.8568  10.8654  10.9820  11.0636  11.0765  11.1450
    11.2293  11.2589  11.2642  11.3281  11.3375  11.3824  11.4667  11.7284
    11.8211  11.8825  11.9531  12.0479  12.0585  12.0968  12.3380  12.3799
    12.4489  12.5508  12.6089  12.6161  12.6197  12.6452  12.7875  12.8467
    12.8748  13.2441  13.2843  13.3196  13.3837  13.4641  13.4915  13.6762
    13.6817  13.7255  13.8096  13.8228  13.8832  13.9530  13.9602  13.9938
    13.9953  14.0001  14.0079

          k = 0.0417 0.1443 0.0000 ( 55027 PWs)   bands (ev):

    -0.7120  -0.3720   0.1227   0.1368   0.4501   0.6974   0.9046   1.2202
     1.3073   1.4289   1.5339   1.5450   1.6054   1.6498   1.6506   1.6610
     1.6967   1.7919   1.8613   1.8866   1.8973   1.9035   1.9193   1.9251
     1.9444   2.0366   2.0574   2.0854   2.0993   2.1140   2.1521   2.1680
     2.1710   2.1738   2.1760   2.1997   2.2058   2.2134   2.2505   2.2573
     2.2770   2.2864   2.2877   2.2884   2.3123   2.3237   2.3385   2.3594
     2.3612   2.3626   2.4145   2.4228   2.4686   2.4860   2.4947   2.4996
     2.5088   2.5181   2.5195   2.5548   2.5682   2.5879   2.6430   2.6489
     2.6926   2.6954   2.7019   2.7022   2.7050   2.7114   2.7232   2.7433
     2.8036   2.8196   2.8705   2.8926   2.9247   3.0052   3.0105   3.0411
     3.0827   3.0889   3.1044   3.1303   3.1417   3.1627   3.2320   3.2377
     3.2486   3.2680   3.2914   3.3398   3.3500   3.3539   3.3744   3.4096
     3.4395   3.4520   3.4837   3.5019   3.5157   3.5242   3.5494   3.5560
     3.5843   3.5887   3.6151   3.6160   3.6200   3.6486   3.6779   3.6855
     3.6859   3.7021   3.7081   3.7496   3.7649   3.7669   3.7707   3.7864
     3.7915   3.8466   3.8507   3.8648   3.8923   3.9038   3.9096   3.9113
     3.9126   3.9279   3.9387   3.9444   3.9451   3.9480   3.9655   3.9764
     3.9776   3.9822   4.0007   4.0220   4.0220   4.0251   4.0562   4.0629
     4.0669   4.0735   4.0746   4.0850   4.1084   4.1158   4.1223   4.1398
     4.1463   4.1479   4.1739   4.1780   4.1813   4.1874   4.1914   4.1946
     4.1974   4.2188   4.2220   4.2238   4.2261   4.2318   4.2687   4.2716
     4.2825   4.3034   4.3078   4.3229   4.3271   4.3446   4.3491   4.3507
     4.3604   4.3784   4.3986   4.4045   4.4189   4.4232   4.4239   4.4320
     4.4576   4.4610   4.4623   4.4932   4.4935   4.5053   4.5336   4.5396
     4.5489   4.5569   4.5777   4.5801   4.5837   4.5906   4.5985   4.6125
     4.6306   4.6647   4.6703   4.6893   4.7064   4.7170   4.7477   4.7951
     4.8046   4.8209   4.8262   4.8333   4.8597   4.8662   4.8960   4.9185
     4.9265   4.9464   4.9467   4.9663   4.9750   4.9818   4.9849   4.9993
     5.0121   5.0272   5.0477   5.0519   5.0840   5.0935   5.0984   5.1168
     5.1296   5.1355   5.1718   5.1822   5.2012   5.2201   5.2386   5.2517
     5.2545   5.2574   5.2795   5.3212   5.3461   5.3467   5.3470   5.3597
     5.3710   5.3782   5.3928   5.3968   5.4098   5.4288   5.4372   5.4490
     5.4541   5.4708   5.4805   5.4941   5.4978   5.5076   5.5094   5.5264
     5.5379   5.5500   5.5537   5.5748   5.5793   5.5815   5.5886   5.6043
     5.6072   5.6128   5.6432   5.6510   5.6678   5.6711   5.7143   5.7284
     5.7295   5.7675   5.7740   5.7899   5.7914   5.7997   5.8345   5.8586
     5.8640   5.8779   5.8975   5.9034   5.9071   5.9139   5.9433   5.9478
     5.9722   5.9823   5.9841   6.0199   6.0236   6.0297   6.0378   6.0594
     6.1089   6.1183   6.1241   6.1252   6.1269   6.1465   6.1502   6.1564
     6.1590   6.1741   6.1937   6.2107   6.2146   6.2233   6.2278   6.2343
     6.2361   6.2504   6.2539   6.2716   6.2757   6.2758   6.2939   6.3003
     6.3010   6.3144   6.3145   6.3209   6.3224   6.3273   6.3342   6.3572
     6.3623   6.3664   6.3760   6.3838   6.3894   6.3907   6.3930   6.4003
     6.4265   6.4354   6.4492   6.4540   6.4583   6.4641   6.4653   6.4808
     6.4872   6.5049   6.5418   6.5432   6.5490   6.5641   6.5644   6.5678
     6.5864   6.5880   6.5969   6.5994   6.6020   6.6023   6.6266   6.6272
     6.7172   6.7181   6.7250   6.7443   6.7963   6.8301   6.8745   6.8772
     6.9105   6.9106   6.9660   7.1489   7.4629   7.4846   7.5677   7.6163
     7.6596   7.7837   7.7876   7.7931   7.9867   8.0369   8.0831   8.2064
     8.2357   8.2943   8.2999   8.4393   8.4792   8.5082   8.6560   8.6806
     8.7582   8.7940   8.9603   9.0337   9.0368   9.1522   9.1736   9.2183
     9.2661   9.4275   9.4830   9.7075   9.7080   9.7105   9.7677   9.7773
     9.9047   9.9557  10.0862  10.2302  10.3584  10.5417  10.6336  10.6516
    10.6522  10.6634  10.9774  11.0146  11.0272  11.1341  11.2090  11.2604
    11.3007  11.3339  11.3796  11.4415  11.5257  11.6091  11.6929  11.7722
    11.8430  11.8433  12.0152  12.0884  12.0923  12.0991  12.2302  12.2953
    12.4259  12.4475  12.5341  12.5529  12.5786  12.6667  12.7282  12.8305
    12.9240  12.9505  13.0059  13.1168  13.2777  13.3259  13.4002  13.4307
    13.4392  13.5569  13.6183  13.6329  13.6484  13.7157  13.7996  13.8986
    14.0117  14.0515  14.1027

          k = 0.0417 0.2406 0.0000 ( 55030 PWs)   bands (ev):

    -0.5138  -0.2261  -0.1777   0.1021   0.3118   0.5802   0.8822   1.1389
     1.4019   1.5058   1.5835   1.6433   1.7092   1.7517   1.7548   1.8040
     1.8168   1.8301   1.8557   1.9104   1.9393   1.9477   1.9732   1.9999
     2.0096   2.0105   2.0134   2.0286   2.0428   2.0659   2.0743   2.0846
     2.1273   2.1442   2.1468   2.1617   2.1689   2.1963   2.2341   2.2418
     2.2478   2.2735   2.2887   2.3028   2.3081   2.3383   2.3439   2.3702
     2.3809   2.3834   2.4081   2.4366   2.4397   2.4495   2.4516   2.4563
     2.4745   2.4767   2.5358   2.5380   2.5535   2.5682   2.5905   2.5945
     2.5987   2.6140   2.6171   2.6591   2.6638   2.6731   2.6933   2.7013
     2.7718   2.7725   2.7855   2.8062   2.8068   2.8491   2.8755   2.8759
     2.9229   2.9565   3.1222   3.1331   3.1401   3.1631   3.1811   3.1992
     3.2742   3.2791   3.3126   3.3274   3.3540   3.3779   3.3792   3.4050
     3.4214   3.5152   3.5321   3.5437   3.5538   3.5763   3.5856   3.5909
     3.5935   3.6248   3.6264   3.6298   3.6449   3.6924   3.6979   3.7045
     3.7201   3.7350   3.7437   3.7594   3.7595   3.7715   3.7852   3.7877
     3.8267   3.8467   3.8555   3.8571   3.8677   3.8683   3.9197   3.9235
     3.9410   3.9488   3.9530   3.9711   3.9759   3.9800   4.0154   4.0164
     4.0194   4.0418   4.0534   4.0579   4.0697   4.0710   4.0765   4.0790
     4.1023   4.1097   4.1198   4.1318   4.1394   4.1412   4.1500   4.1549
     4.1625   4.1695   4.1832   4.1871   4.1936   4.2004   4.2022   4.2051
     4.2182   4.2369   4.2543   4.2560   4.2740   4.2746   4.2887   4.2968
     4.3005   4.3062   4.3147   4.3225   4.3395   4.3505   4.3536   4.3689
     4.3692   4.3710   4.3815   4.3938   4.3996   4.4255   4.4667   4.4712
     4.4782   4.4854   4.4906   4.4956   4.4991   4.5050   4.5343   4.5355
     4.5361   4.5559   4.5745   4.5788   4.5863   4.6620   4.6804   4.6918
     4.7144   4.7189   4.7256   4.7307   4.7853   4.8014   4.8103   4.8150
     4.8177   4.8241   4.8260   4.8497   4.8594   4.8717   4.9011   4.9066
     4.9253   4.9585   4.9712   4.9820   5.0021   5.0065   5.0165   5.0249
     5.0343   5.0372   5.0842   5.0945   5.1094   5.1224   5.1293   5.1733
     5.1804   5.1999   5.2249   5.2311   5.2390   5.2410   5.2503   5.2590
     5.2741   5.2767   5.2858   5.2971   5.3265   5.3370   5.3443   5.3642
     5.3672   5.3731   5.3763   5.3767   5.3877   5.4028   5.4034   5.4091
     5.4729   5.4869   5.5333   5.5371   5.5424   5.5469   5.5777   5.5821
     5.5990   5.6075   5.6201   5.6320   5.6405   5.6680   5.6745   5.6967
     5.7080   5.7308   5.7311   5.7333   5.7484   5.7668   5.7698   5.7779
     5.8001   5.8289   5.8341   5.8373   5.8438   5.8538   5.8542   5.8571
     5.8575   5.9006   5.9035   5.9107   5.9489   5.9495   5.9588   5.9688
     5.9909   6.0095   6.0131   6.0142   6.0279   6.0360   6.0439   6.0478
     6.0535   6.0574   6.0719   6.0736   6.0766   6.0775   6.0906   6.0911
     6.1011   6.1245   6.1300   6.1449   6.1528   6.1687   6.1763   6.1842
     6.1929   6.1994   6.2058   6.2093   6.2253   6.2259   6.2351   6.2481
     6.2574   6.2636   6.2648   6.2657   6.2673   6.2731   6.2791   6.2827
     6.2911   6.2931   6.3071   6.3171   6.3337   6.3362   6.3496   6.3589
     6.3648   6.3701   6.3773   6.3778   6.4185   6.4244   6.4251   6.4424
     6.4454   6.4497   6.4742   6.5160   6.5467   6.5472   6.5484   6.5508
     6.5844   6.5851   6.5892   6.5917   6.5991   6.5996   6.6020   6.6042
     6.6626   6.7166   6.7245   6.7281   6.7394   6.8159   6.8258   6.8950
     6.8961   6.8973   6.9053   6.9060   6.9118   7.0666   7.4070   7.4967
     7.6143   7.6393   7.7172   7.8003   7.8510   7.8662   8.0289   8.0663
     8.1972   8.2647   8.3294   8.3615   8.4199   8.4214   8.5164   8.5961
     8.6836   8.8061   8.8540   9.0091   9.0219   9.1285   9.2262   9.2504
     9.3118   9.3896   9.7010   9.7303   9.7557   9.7803   9.7876   9.8687
    10.0743  10.2500  10.2529  10.4661  10.5445  10.5918  10.6434  10.7565
    10.7871  11.0499  11.1348  11.1946  11.2181  11.2268  11.2741  11.3419
    11.3897  11.4437  11.4823  11.6596  11.6620  11.7791  11.8063  11.8563
    11.9858  12.0116  12.1032  12.1128  12.1262  12.2554  12.3037  12.3200
    12.3470  12.4090  12.5246  12.5923  12.6219  12.6533  12.7046  12.7650
    12.8204  12.8497  12.9359  13.0712  13.0962  13.1679  13.2029  13.2840
    13.4464  13.4617  13.4632  13.5272  13.6557  13.6623  13.6885  13.8264
    13.8961  13.9581  14.1020

          k = 0.1250 0.0481 0.0000 ( 55079 PWs)   bands (ev):

    -0.7371  -0.3966   0.0989   0.6179   0.6743   0.9017   1.0349   1.1979
     1.2810   1.3082   1.5129   1.6013   1.6172   1.6297   1.6348   1.6504
     1.6769   1.7829   1.8490   1.8751   1.8937   1.8997   1.9019   1.9259
     1.9817   2.0480   2.0793   2.0925   2.1251   2.1391   2.1540   2.1634
     2.1652   2.2024   2.2212   2.2302   2.2416   2.2445   2.2811   2.2836
     2.2969   2.3111   2.3426   2.3518   2.3563   2.4043   2.4142   2.4361
     2.4404   2.4700   2.4725   2.4803   2.5226   2.5388   2.5418   2.5508
     2.5817   2.5908   2.6334   2.6410   2.6632   2.6765   2.6786   2.6938
     2.7239   2.7517   2.7860   2.7898   2.8261   2.8324   2.8638   2.9155
     2.9237   2.9483   2.9914   3.0344   3.0607   3.0732   3.0745   3.1141
     3.1540   3.1628   3.1773   3.1787   3.1960   3.2221   3.2577   3.2958
     3.2990   3.2994   3.3291   3.3325   3.3383   3.3596   3.3721   3.3882
     3.3902   3.4134   3.4376   3.4377   3.4694   3.4704   3.4855   3.5314
     3.5527   3.5593   3.5648   3.5678   3.6023   3.6090   3.6244   3.6291
     3.6442   3.6738   3.6971   3.7176   3.7216   3.7228   3.7296   3.7351
     3.7745   3.7777   3.8087   3.8156   3.8178   3.8416   3.8590   3.8599
     3.8755   3.8802   3.8837   3.8955   3.8984   3.9143   3.9331   3.9350
     3.9545   3.9558   3.9575   3.9663   3.9725   3.9766   3.9818   3.9839
     3.9898   4.0188   4.0325   4.0583   4.0635   4.0727   4.0746   4.0828
     4.0921   4.0988   4.1018   4.1098   4.1140   4.1380   4.1648   4.1683
     4.1782   4.1815   4.1846   4.1892   4.1915   4.1938   4.2005   4.2079
     4.2223   4.2289   4.2368   4.2463   4.2520   4.2925   4.3041   4.3121
     4.3212   4.3305   4.3596   4.3651   4.3674   4.3687   4.3837   4.3941
     4.4062   4.4134   4.4267   4.4378   4.4438   4.4619   4.4824   4.4978
     4.5011   4.5179   4.5230   4.5425   4.5430   4.5524   4.5696   4.6477
     4.6509   4.6737   4.6754   4.7123   4.7462   4.7704   4.7718   4.8046
     4.8270   4.8437   4.8544   4.8742   4.8807   4.8936   4.9178   4.9190
     4.9329   4.9342   4.9401   4.9459   4.9471   4.9516   4.9816   5.0068
     5.0114   5.0163   5.0434   5.0631   5.0667   5.0929   5.1000   5.1215
     5.1346   5.1392   5.1396   5.1516   5.1547   5.1929   5.2108   5.2260
     5.2272   5.2327   5.2500   5.2583   5.2604   5.2670   5.2864   5.3119
     5.3122   5.3245   5.3272   5.3357   5.3414   5.3537   5.3621   5.3640
     5.3691   5.4010   5.4059   5.4323   5.4523   5.4706   5.4779   5.5009
     5.5062   5.5086   5.5254   5.5505   5.5692   5.5724   5.5733   5.5809
     5.5984   5.5985   5.6382   5.6418   5.6502   5.6609   5.6851   5.6916
     5.7034   5.7297   5.7564   5.7598   5.7780   5.7906   5.7991   5.8005
     5.8398   5.8471   5.8641   5.8695   5.8737   5.8804   5.9236   5.9371
     5.9529   5.9699   6.0302   6.0320   6.0449   6.0553   6.0759   6.0792
     6.0885   6.0962   6.0984   6.1206   6.1315   6.1334   6.1563   6.1652
     6.1826   6.1833   6.2068   6.2207   6.2227   6.2246   6.2348   6.2378
     6.2489   6.2578   6.2690   6.2773   6.2823   6.2868   6.2921   6.2955
     6.3087   6.3122   6.3149   6.3269   6.3368   6.3451   6.3465   6.3499
     6.3561   6.3642   6.3676   6.3732   6.3753   6.3820   6.3938   6.3950
     6.4011   6.4100   6.4199   6.4470   6.4472   6.4791   6.4812   6.4823
     6.4835   6.5079   6.5083   6.5282   6.5344   6.5377   6.5397   6.5451
     6.5460   6.5502   6.5766   6.5943   6.6052   6.6249   6.6538   6.6555
     6.6612   6.6684   6.6787   6.7013   6.7481   6.7855   6.7881   6.8419
     6.8436   6.9537   7.0460   7.1245   7.1993   7.2039   7.3952   7.3982
     7.5526   7.6292   7.7218   7.7927   7.8827   7.9081   8.1020   8.1390
     8.1864   8.1908   8.2657   8.4425   8.5428   8.5573   8.7581   8.8449
     8.8610   8.9424   8.9855   9.0161   9.0977   9.1029   9.1660   9.1958
     9.3704   9.4413   9.4739   9.5982   9.7589   9.8114   9.8566   9.9073
    10.0291  10.0776  10.1009  10.1406  10.1419  10.3275  10.5030  10.5044
    10.7768  10.7969  10.9418  11.0387  11.0894  11.1636  11.2335  11.2416
    11.3476  11.3507  11.3926  11.4102  11.4691  11.5349  11.5748  11.7031
    11.9238  11.9535  11.9608  12.0719  12.0839  12.1052  12.1414  12.1802
    12.4425  12.4881  12.5526  12.6180  12.7002  12.7425  12.8206  12.8436
    12.9774  13.0319  13.2616  13.3350  13.4285  13.5814  13.5985  13.6312
    13.7214  13.7981  13.8116  13.9578  14.0052  14.0484  14.0590  14.0629
    14.1657  14.3028  14.4234

          k = 0.1250 0.1443 0.0000 ( 55061 PWs)   bands (ev):

    -0.6371  -0.2984   0.1948   0.2063   0.5171   0.7686   0.9683   1.2912
     1.3787   1.4917   1.6014   1.6107   1.6117   1.6684   1.7140   1.7257
     1.7567   1.8528   1.8594   1.9156   1.9239   1.9385   1.9573   1.9645
     1.9896   2.0035   2.0802   2.0954   2.1162   2.1473   2.1647   2.1686
     2.1982   2.2066   2.2216   2.2218   2.2394   2.2609   2.2717   2.2762
     2.3136   2.3213   2.3218   2.3235   2.3505   2.3771   2.3859   2.3883
     2.3930   2.3946   2.3985   2.4787   2.4794   2.4842   2.5097   2.5328
     2.5415   2.5528   2.5644   2.5866   2.6066   2.6156   2.6238   2.6829
     2.7090   2.7139   2.7270   2.7374   2.7618   2.7672   2.7713   2.7845
     2.8147   2.8643   2.8739   2.9333   2.9686   3.0244   3.0290   3.0910
     3.0985   3.1024   3.1243   3.1366   3.1504   3.1932   3.2460   3.2607
     3.2699   3.2986   3.2992   3.3421   3.3488   3.3812   3.4094   3.4149
     3.4221   3.4548   3.4608   3.4688   3.4800   3.4953   3.5254   3.5368
     3.5491   3.5528   3.5877   3.5906   3.6268   3.6390   3.6479   3.6633
     3.6771   3.6909   3.7236   3.7345   3.7373   3.7508   3.7994   3.8052
     3.8127   3.8246   3.8343   3.8367   3.8487   3.8728   3.8777   3.8915
     3.8967   3.9145   3.9165   3.9179   3.9223   3.9322   3.9486   3.9662
     3.9813   3.9921   3.9946   4.0119   4.0285   4.0294   4.0408   4.0427
     4.0445   4.0456   4.0593   4.0713   4.0817   4.1074   4.1099   4.1216
     4.1223   4.1504   4.1512   4.1612   4.1661   4.1692   4.1913   4.1935
     4.2028   4.2084   4.2120   4.2131   4.2285   4.2433   4.2485   4.2542
     4.2784   4.2839   4.2913   4.2994   4.3004   4.3218   4.3358   4.3456
     4.3468   4.3762   4.3768   4.3830   4.3852   4.4078   4.4101   4.4246
     4.4415   4.4465   4.4613   4.4695   4.5056   4.5159   4.5326   4.5452
     4.5524   4.5548   4.5565   4.5661   4.5811   4.5834   4.5966   4.6097
     4.6250   4.6418   4.6447   4.6708   4.6964   4.7052   4.7697   4.7799
     4.7990   4.8032   4.8192   4.8440   4.8508   4.8763   4.8797   4.8860
     4.9074   4.9074   4.9116   4.9254   4.9483   4.9550   4.9713   4.9713
     4.9753   4.9784   5.0303   5.0439   5.0698   5.0732   5.0772   5.0934
     5.1009   5.1179   5.1599   5.1610   5.1929   5.2104   5.2144   5.2369
     5.2451   5.2518   5.2811   5.2905   5.2968   5.3093   5.3285   5.3344
     5.3455   5.3613   5.3645   5.3699   5.3753   5.3877   5.3883   5.4065
     5.4296   5.4447   5.4532   5.4628   5.4636   5.4855   5.4911   5.4945
     5.4974   5.5317   5.5371   5.5372   5.5490   5.5739   5.5755   5.5951
     5.6159   5.6419   5.6433   5.6438   5.6786   5.6862   5.7087   5.7090
     5.7301   5.7420   5.7493   5.7688   5.7919   5.8193   5.8262   5.8406
     5.8545   5.8625   5.8959   5.9022   5.9135   5.9147   5.9401   5.9580
     5.9703   5.9796   6.0108   6.0272   6.0295   6.0558   6.0636   6.0662
     6.0718   6.0870   6.0906   6.1051   6.1143   6.1197   6.1341   6.1521
     6.1546   6.1610   6.1739   6.1887   6.1952   6.1991   6.2014   6.2023
     6.2082   6.2181   6.2201   6.2286   6.2426   6.2476   6.2497   6.2574
     6.2588   6.2646   6.2685   6.2731   6.2876   6.2886   6.2959   6.3146
     6.3294   6.3390   6.3470   6.3473   6.3548   6.3587   6.3710   6.3753
     6.3801   6.3881   6.3900   6.3968   6.4012   6.4316   6.4546   6.4667
     6.4732   6.4738   6.4739   6.4820   6.5068   6.5309   6.5365   6.5377
     6.5406   6.5450   6.5462   6.5505   6.5593   6.5799   6.5875   6.6144
     6.6567   6.6675   6.6832   6.7145   6.7909   6.7982   6.8400   6.8406
     6.9104   6.9558   6.9640   7.0723   7.0948   7.1915   7.2983   7.3758
     7.4282   7.4843   7.5298   7.6599   7.7033   7.7552   7.7588   7.8871
     7.9649   8.2564   8.2718   8.3176   8.3489   8.5147   8.7451   8.8107
     8.9662   8.9803   9.0036   9.0600   9.1493   9.2329   9.2551   9.2600
     9.3437   9.5719   9.6172   9.6503   9.7776   9.7893   9.8020   9.8867
     9.9663  10.1476  10.2437  10.3085  10.3246  10.5114  10.7337  10.7664
    10.7994  10.8090  11.0016  11.0536  11.1195  11.2009  11.2894  11.3368
    11.3812  11.4399  11.5396  11.5533  11.6095  11.6595  11.6727  11.7684
    11.8382  11.8471  11.9862  12.0658  12.1285  12.1626  12.2721  12.2965
    12.3097  12.4713  12.4877  12.5138  12.7128  12.8816  12.8885  12.9857
    13.0013  13.0877  13.2907  13.4126  13.4959  13.5277  13.5798  13.6131
    13.6137  13.6344  13.6813  13.8497  13.9058  14.0027  14.0576  14.1045
    14.1638  14.2007  14.2326

          k = 0.1250 0.2406 0.0000 ( 55022 PWs)   bands (ev):

    -0.4404  -0.1547  -0.1060   0.1715   0.3816   0.6470   0.9506   1.2039
     1.4700   1.5750   1.6491   1.6801   1.7087   1.7733   1.7998   1.8192
     1.8669   1.8783   1.9140   1.9189   1.9255   2.0014   2.0016   2.0130
     2.0351   2.0358   2.0690   2.0732   2.1040   2.1110   2.1239   2.1460
     2.1483   2.1539   2.1708   2.1914   2.1931   2.2157   2.2289   2.2861
     2.2884   2.2891   2.2922   2.3279   2.3414   2.3457   2.3625   2.3731
     2.3890   2.4179   2.4279   2.4339   2.4592   2.4735   2.4816   2.5062
     2.5110   2.5378   2.5473   2.5897   2.5897   2.5972   2.6016   2.6479
     2.6485   2.6627   2.6633   2.6757   2.7099   2.7333   2.7507   2.7532
     2.7624   2.7935   2.8118   2.8313   2.8660   2.8787   2.8938   2.9007
     2.9846   3.0231   3.1231   3.1447   3.1694   3.1761   3.2073   3.2239
     3.2933   3.3059   3.3243   3.3296   3.3595   3.3858   3.3860   3.4117
     3.4473   3.4624   3.4784   3.5043   3.5241   3.5343   3.5614   3.5627
     3.5891   3.5923   3.5983   3.6087   3.6498   3.6546   3.6589   3.7060
     3.7155   3.7248   3.7371   3.7468   3.7593   3.7661   3.7956   3.8030
     3.8272   3.8288   3.8381   3.8392   3.8569   3.8702   3.8923   3.9000
     3.9185   3.9343   3.9450   3.9628   3.9807   3.9833   3.9979   4.0099
     4.0104   4.0303   4.0307   4.0359   4.0640   4.0664   4.0781   4.0812
     4.0964   4.1011   4.1054   4.1109   4.1301   4.1322   4.1376   4.1501
     4.1530   4.1693   4.1827   4.1986   4.2055   4.2085   4.2086   4.2285
     4.2299   4.2347   4.2506   4.2668   4.2698   4.2919   4.2934   4.2939
     4.2995   4.3026   4.3216   4.3229   4.3297   4.3331   4.3542   4.3573
     4.3623   4.3764   4.3880   4.3935   4.3964   4.4040   4.4320   4.4340
     4.4594   4.4648   4.4953   4.5038   4.5241   4.5338   4.5408   4.5422
     4.5558   4.5560   4.5829   4.6098   4.6191   4.6271   4.6622   4.6655
     4.6926   4.7013   4.7084   4.7145   4.7244   4.7275   4.7484   4.7639
     4.7676   4.7861   4.7893   4.7960   4.8183   4.8403   4.8488   4.9105
     4.9331   4.9425   4.9569   4.9628   4.9677   4.9680   5.0072   5.0133
     5.0190   5.0347   5.0590   5.0699   5.0713   5.0773   5.0941   5.1000
     5.1253   5.1290   5.1432   5.1485   5.1551   5.1830   5.1842   5.1945
     5.2264   5.2299   5.2606   5.2720   5.2808   5.2971   5.3216   5.3279
     5.3348   5.3479   5.3562   5.3609   5.3721   5.4003   5.4067   5.4191
     5.4376   5.4563   5.4636   5.4969   5.4986   5.5193   5.5267   5.5333
     5.5431   5.5434   5.5796   5.5871   5.5939   5.6078   5.6223   5.6302
     5.6355   5.6756   5.6794   5.6938   5.6972   5.7012   5.7258   5.7412
     5.7562   5.7628   5.7679   5.7926   5.7961   5.8068   5.8184   5.8261
     5.8728   5.8763   5.9010   5.9080   5.9080   5.9377   5.9526   5.9543
     5.9553   5.9587   5.9700   5.9803   5.9885   6.0004   6.0125   6.0186
     6.0289   6.0314   6.0322   6.0629   6.0721   6.0882   6.1030   6.1039
     6.1205   6.1213   6.1346   6.1470   6.1471   6.1480   6.1559   6.1643
     6.1670   6.1747   6.1800   6.1841   6.1870   6.2097   6.2189   6.2196
     6.2322   6.2325   6.2427   6.2475   6.2558   6.2598   6.2773   6.2809
     6.2889   6.2922   6.3209   6.3260   6.3378   6.3423   6.3576   6.3808
     6.3856   6.3876   6.3911   6.4199   6.4233   6.4345   6.4421   6.4528
     6.4812   6.4812   6.4921   6.5105   6.5112   6.5148   6.5185   6.5313
     6.5395   6.5404   6.5488   6.5495   6.5572   6.5638   6.5808   6.6146
     6.6643   6.6671   6.7071   6.7671   6.8180   6.8228   6.8327   6.8353
     6.8426   6.9227   6.9712   7.0300   7.0386   7.0593   7.1255   7.1763
     7.1871   7.2757   7.3457   7.3470   7.5599   7.5887   7.6639   7.6744
     7.8643   8.0189   8.2464   8.2604   8.3482   8.3645   8.8022   9.0041
     9.0299   9.0951   9.1235   9.2665   9.3014   9.3083   9.4091   9.4699
     9.4729   9.6380   9.6382   9.7734   9.7987   9.8459   9.8569   9.9280
    10.0797  10.1338  10.2082  10.3041  10.3669  10.3903  10.5121  10.5468
    10.5824  10.7551  10.8615  10.8782  11.0970  11.1786  11.2673  11.2952
    11.3707  11.5077  11.6901  11.7290  11.7681  11.9383  12.0032  12.0776
    12.1100  12.1582  12.2226  12.2483  12.2801  12.3199  12.3317  12.4726
    12.4820  12.5627  12.7155  12.7314  12.8588  12.8727  13.0057  13.0126
    13.0743  13.1330  13.2139  13.2602  13.2668  13.3371  13.3808  13.5359
    13.5406  13.5620  13.6859  13.7468  13.8518  13.8816  13.9067  14.0046
    14.1483  14.1995  14.2606

          k = 0.2083 0.0481 0.0000 ( 55067 PWs)   bands (ev):

    -0.5875  -0.2496   0.2428   0.7501   0.8164   1.0261   1.1688   1.3393
     1.4025   1.4233   1.6067   1.6471   1.6938   1.7255   1.7556   1.7633
     1.7976   1.8384   1.8537   1.8898   1.9311   1.9418   1.9646   1.9731
     1.9924   2.0436   2.0855   2.0887   2.1379   2.1388   2.1459   2.1987
     2.2168   2.2309   2.2416   2.2513   2.2893   2.3434   2.3437   2.3478
     2.3554   2.4010   2.4164   2.4225   2.4284   2.4308   2.4890   2.4986
     2.5322   2.5394   2.5684   2.5826   2.5924   2.6073   2.6192   2.6600
     2.6792   2.7041   2.7049   2.7087   2.7165   2.7552   2.7572   2.7676
     2.7828   2.7855   2.8081   2.8792   2.8833   2.9155   2.9313   2.9434
     2.9596   2.9870   3.0503   3.0698   3.0935   3.1031   3.1074   3.1522
     3.1565   3.1762   3.1813   3.1870   3.1941   3.2304   3.2477   3.2800
     3.2932   3.2947   3.3107   3.3116   3.3160   3.3305   3.3375   3.3517
     3.3737   3.4120   3.4162   3.4311   3.4487   3.4649   3.4696   3.4767
     3.4911   3.4920   3.5190   3.5397   3.5548   3.5577   3.5791   3.6008
     3.6149   3.6471   3.6488   3.6569   3.6664   3.6681   3.6801   3.6855
     3.7575   3.7582   3.7859   3.7886   3.7903   3.8183   3.8405   3.8485
     3.8517   3.8586   3.8605   3.8663   3.8919   3.8929   3.8982   3.9279
     3.9448   3.9539   3.9570   3.9643   3.9691   3.9693   3.9700   3.9963
     3.9987   4.0049   4.0122   4.0287   4.0298   4.0464   4.0478   4.0502
     4.0589   4.0632   4.0753   4.1147   4.1247   4.1369   4.1393   4.1420
     4.1499   4.1502   4.1615   4.1704   4.1722   4.1759   4.1832   4.1910
     4.2008   4.2147   4.2265   4.2488   4.2537   4.2596   4.2613   4.2635
     4.2694   4.2950   4.2951   4.3093   4.3242   4.3761   4.3852   4.3899
     4.4033   4.4081   4.4102   4.4217   4.4414   4.4614   4.4711   4.4815
     4.4940   4.5044   4.5298   4.5304   4.5500   4.5552   4.5661   4.5980
     4.6149   4.6167   4.6622   4.7195   4.7270   4.7580   4.7699   4.7720
     4.8218   4.8304   4.8353   4.8474   4.8532   4.8557   4.8765   4.8891
     4.9085   4.9104   4.9117   4.9237   4.9407   4.9467   4.9553   4.9776
     4.9898   5.0122   5.0317   5.0458   5.0544   5.0721   5.0845   5.0853
     5.0945   5.1316   5.1429   5.1878   5.1884   5.1885   5.1886   5.2127
     5.2191   5.2231   5.2291   5.2446   5.2592   5.2679   5.2688   5.2771
     5.2796   5.3154   5.3250   5.3352   5.3523   5.3590   5.3752   5.3822
     5.3883   5.3931   5.3938   5.4188   5.4294   5.4615   5.4624   5.4682
     5.4784   5.5075   5.5135   5.5264   5.5391   5.5472   5.5517   5.5563
     5.5628   5.5941   5.5964   5.6259   5.6285   5.6531   5.6632   5.6823
     5.6870   5.7288   5.7401   5.7502   5.7672   5.7944   5.7960   5.8124
     5.8127   5.8175   5.8328   5.8596   5.8616   5.8776   5.9059   5.9144
     5.9377   5.9452   5.9625   5.9747   5.9895   5.9985   6.0241   6.0403
     6.0561   6.0636   6.0644   6.0698   6.0910   6.0980   6.1078   6.1094
     6.1110   6.1271   6.1360   6.1462   6.1471   6.1587   6.1599   6.1636
     6.1639   6.1800   6.1802   6.1899   6.1919   6.2091   6.2251   6.2326
     6.2354   6.2354   6.2405   6.2419   6.2545   6.2636   6.2721   6.2763
     6.2769   6.2770   6.2855   6.2857   6.2897   6.2963   6.3090   6.3133
     6.3260   6.3470   6.3516   6.3629   6.3793   6.3852   6.3913   6.4202
     6.4221   6.4350   6.4379   6.4406   6.4451   6.4513   6.4541   6.4687
     6.4963   6.5027   6.5070   6.5572   6.5627   6.5719   6.5769   6.5935
     6.6186   6.6398   6.6572   6.6611   6.6678   6.6760   6.6849   6.6941
     6.7145   6.7160   6.7981   6.8757   6.9864   7.0633   7.0975   7.1044
     7.2568   7.2669   7.4134   7.5111   7.5948   7.6023   7.7092   7.7918
     7.9025   7.9881   8.0955   8.2152   8.2775   8.3050   8.5499   8.7358
     8.8266   8.9292   9.0115   9.0721   9.0888   9.1527   9.3477   9.4148
     9.6530   9.6603   9.7165   9.7776   9.8379   9.8853   9.9723  10.0377
    10.0481  10.2263  10.2621  10.4360  10.4455  10.5774  10.6215  10.9049
    11.0044  11.0661  11.1810  11.2102  11.2912  11.3185  11.3680  11.4649
    11.5088  11.5139  11.5187  11.5922  11.6759  11.7287  11.7802  11.8405
    11.9628  12.0043  12.0149  12.0997  12.1629  12.3031  12.3516  12.3762
    12.5155  12.5738  12.6338  12.7545  12.8506  12.9213  12.9641  13.0674
    13.2234  13.4246  13.4744  13.5126  13.5702  13.6158  13.7457  13.7556
    13.7672  13.8013  13.8407  14.0121  14.1034  14.1305  14.1526  14.1876
    14.2949  14.3917  14.5316

          k = 0.2083 0.1443 0.0000 ( 55049 PWs)   bands (ev):

    -0.4894  -0.1536   0.3358   0.3412   0.6460   0.9070   1.0890   1.4283
     1.5164   1.5724   1.6072   1.7306   1.7333   1.7478   1.7899   1.8180
     1.8302   1.8359   1.8509   1.9450   1.9505   1.9606   2.0294   2.0370
     2.0433   2.0716   2.0771   2.1041   2.1152   2.1317   2.1958   2.2216
     2.2404   2.2549   2.2722   2.2913   2.2934   2.3040   2.3509   2.3573
     2.3716   2.3869   2.3923   2.4376   2.4381   2.4433   2.4563   2.4620
     2.4653   2.4713   2.4842   2.4883   2.5106   2.5703   2.5776   2.5878
     2.5891   2.6117   2.6371   2.6880   2.6883   2.7008   2.7052   2.7075
     2.7508   2.7848   2.7883   2.7938   2.8161   2.8263   2.8356   2.8617
     2.8766   2.9015   2.9879   2.9983   3.0069   3.0535   3.0791   3.1069
     3.1083   3.1253   3.1701   3.1794   3.1813   3.1957   3.2441   3.2608
     3.2731   3.3153   3.3236   3.3392   3.3704   3.3872   3.3901   3.4221
     3.4277   3.4379   3.4383   3.4498   3.4609   3.4900   3.4902   3.4951
     3.5051   3.5388   3.5631   3.5669   3.5836   3.5912   3.6179   3.6260
     3.6492   3.6889   3.6930   3.7071   3.7238   3.7277   3.7314   3.7374
     3.7494   3.7596   3.8015   3.8058   3.8133   3.8390   3.8413   3.8595
     3.8768   3.8802   3.8833   3.8988   3.9150   3.9213   3.9235   3.9397
     3.9496   3.9561   3.9668   3.9786   3.9907   3.9985   4.0172   4.0245
     4.0264   4.0274   4.0382   4.0681   4.0735   4.0767   4.0782   4.1155
     4.1164   4.1335   4.1449   4.1598   4.1680   4.1795   4.1829   4.1891
     4.2001   4.2092   4.2100   4.2233   4.2266   4.2401   4.2413   4.2496
     4.2595   4.2871   4.2891   4.3070   4.3072   4.3126   4.3152   4.3250
     4.3392   4.3455   4.3482   4.3527   4.3604   4.3605   4.3721   4.3827
     4.4133   4.4163   4.4575   4.4811   4.4829   4.4866   4.4892   4.5158
     4.5209   4.5239   4.5397   4.5412   4.5441   4.5651   4.5823   4.5835
     4.5969   4.6383   4.6417   4.6596   4.6825   4.7015   4.7479   4.7533
     4.7587   4.7636   4.7902   4.8230   4.8288   4.8363   4.8425   4.8457
     4.8582   4.8765   4.9194   4.9278   4.9330   4.9426   4.9527   4.9565
     4.9754   4.9812   4.9947   5.0152   5.0262   5.0288   5.0594   5.0808
     5.1062   5.1086   5.1347   5.1544   5.1556   5.1652   5.1766   5.1770
     5.1928   5.1965   5.1965   5.2143   5.2198   5.2272   5.2399   5.2583
     5.2971   5.3036   5.3064   5.3091   5.3368   5.3413   5.3470   5.3536
     5.3611   5.3814   5.3901   5.3970   5.4362   5.4523   5.4539   5.4715
     5.4786   5.4919   5.4941   5.5232   5.5272   5.5344   5.5448   5.5525
     5.5724   5.5766   5.6117   5.6200   5.6210   5.6413   5.6434   5.6563
     5.6725   5.6827   5.7298   5.7534   5.7753   5.8014   5.8167   5.8220
     5.8479   5.8596   5.8669   5.8841   5.9184   5.9233   5.9374   5.9442
     5.9496   5.9626   5.9700   5.9862   5.9950   6.0085   6.0155   6.0165
     6.0292   6.0393   6.0423   6.0518   6.0608   6.0682   6.0729   6.0951
     6.0953   6.1002   6.1194   6.1253   6.1340   6.1424   6.1467   6.1595
     6.1617   6.1688   6.1718   6.1738   6.1868   6.1934   6.2002   6.2113
     6.2193   6.2241   6.2257   6.2357   6.2482   6.2592   6.2648   6.2708
     6.2717   6.2723   6.2783   6.3099   6.3123   6.3179   6.3221   6.3400
     6.3509   6.3511   6.3663   6.3729   6.3838   6.3870   6.3900   6.4026
     6.4135   6.4164   6.4313   6.4316   6.4405   6.4435   6.4467   6.4524
     6.4757   6.4827   6.4960   6.5007   6.5087   6.5481   6.5580   6.5937
     6.6018   6.6099   6.6147   6.6631   6.6740   6.6776   6.6831   6.7112
     6.7150   6.7185   6.7233   6.7549   6.8585   6.8592   6.9700   7.0815
     7.1299   7.2085   7.2890   7.5872   7.6102   7.7383   7.7916   7.9544
     8.0388   8.0671   8.1680   8.2636   8.3151   8.3635   8.3997   8.4577
     8.6851   8.7158   8.9061   8.9642   9.0905   9.2937   9.3241   9.4099
     9.4722   9.7443   9.7508   9.8461   9.8477   9.9371  10.0410  10.1394
    10.2084  10.3990  10.4852  10.4982  10.5359  10.5949  10.7893  10.7904
    10.9617  10.9863  11.0081  11.0412  11.0646  11.1419  11.2130  11.3909
    11.4139  11.4748  11.6671  11.6774  11.7684  11.7863  11.8454  11.8818
    11.9904  12.1724  12.2140  12.2571  12.3000  12.4105  12.4302  12.4400
    12.6152  12.6157  12.6410  12.9277  12.9963  13.0109  13.1153  13.1582
    13.1746  13.4024  13.5266  13.5755  13.5949  13.6174  13.6317  13.7317
    13.7709  13.9136  13.9239  14.1859  14.2072  14.2844  14.2856  14.2932
    14.2968  14.4465  14.4926

          k = 0.2083 0.2406 0.0000 ( 54996 PWs)   bands (ev):

    -0.2962  -0.0151   0.0346   0.3064   0.5171   0.7753   1.0820   1.3264
     1.5900   1.5993   1.6534   1.7082   1.7753   1.8301   1.8310   1.8822
     1.8926   1.9456   1.9848   1.9973   2.0089   2.0219   2.0383   2.0863
     2.0947   2.0984   2.1130   2.1327   2.1389   2.1597   2.1783   2.1825
     2.2188   2.2191   2.2314   2.2430   2.2451   2.2592   2.3038   2.3196
     2.3319   2.3376   2.3560   2.3701   2.3710   2.4264   2.4394   2.4484
     2.4678   2.4701   2.4759   2.5039   2.5197   2.5291   2.5475   2.5603
     2.5779   2.5928   2.6340   2.6434   2.6454   2.6575   2.6896   2.7050
     2.7104   2.7329   2.7542   2.7749   2.7849   2.7928   2.8136   2.8175
     2.8492   2.8589   2.8852   2.8935   2.9119   2.9372   2.9592   2.9842
     3.0681   3.1049   3.1393   3.1620   3.1924   3.2154   3.2254   3.2885
     3.2907   3.3108   3.3116   3.3178   3.3499   3.3551   3.3840   3.4263
     3.4329   3.4413   3.4639   3.4826   3.5068   3.5072   3.5135   3.5365
     3.5513   3.5737   3.5747   3.5852   3.5922   3.6107   3.6519   3.6647
     3.6649   3.6707   3.6858   3.7031   3.7540   3.7572   3.7580   3.7726
     3.7961   3.8100   3.8140   3.8367   3.8529   3.8614   3.8868   3.9018
     3.9080   3.9101   3.9156   3.9262   3.9370   3.9377   3.9548   3.9724
     4.0156   4.0160   4.0236   4.0256   4.0270   4.0465   4.0552   4.0640
     4.0787   4.0829   4.0923   4.1072   4.1176   4.1386   4.1448   4.1557
     4.1595   4.1816   4.1874   4.1999   4.2015   4.2162   4.2209   4.2248
     4.2363   4.2406   4.2452   4.2576   4.2647   4.2647   4.2693   4.2794
     4.2896   4.2941   4.3101   4.3113   4.3176   4.3242   4.3352   4.3439
     4.3811   4.3900   4.3909   4.4116   4.4132   4.4229   4.4286   4.4388
     4.4443   4.4655   4.4752   4.4815   4.4816   4.5152   4.5483   4.5768
     4.5777   4.5788   4.5828   4.5904   4.5914   4.6012   4.6122   4.6307
     4.6541   4.6545   4.6568   4.6664   4.6745   4.6793   4.6990   4.7092
     4.7208   4.7319   4.7555   4.7612   4.8105   4.8105   4.8123   4.8239
     4.8572   4.8659   4.8812   4.9028   4.9057   4.9127   4.9424   4.9487
     4.9543   4.9778   4.9814   4.9958   5.0015   5.0041   5.0113   5.0269
     5.0295   5.0472   5.0558   5.0797   5.0993   5.1037   5.1107   5.1192
     5.1485   5.1784   5.1879   5.1899   5.1992   5.2400   5.2447   5.2505
     5.2745   5.2746   5.3005   5.3231   5.3607   5.3612   5.3797   5.3900
     5.4085   5.4135   5.4328   5.4398   5.4477   5.4520   5.4581   5.4669
     5.4758   5.4820   5.4930   5.5123   5.5325   5.5351   5.5461   5.5659
     5.5808   5.5893   5.6004   5.6085   5.6187   5.6460   5.6598   5.6702
     5.6703   5.6850   5.6972   5.7383   5.7523   5.7552   5.7627   5.7696
     5.7866   5.8025   5.8086   5.8306   5.8419   5.8442   5.8697   5.8959
     5.8989   5.9032   5.9061   5.9218   5.9412   5.9527   5.9698   5.9793
     5.9922   5.9939   6.0058   6.0071   6.0205   6.0248   6.0395   6.0464
     6.0625   6.0647   6.0750   6.0792   6.0815   6.1019   6.1391   6.1399
     6.1529   6.1703   6.1771   6.1781   6.1854   6.1949   6.1949   6.2032
     6.2041   6.2153   6.2203   6.2222   6.2300   6.2342   6.2438   6.2493
     6.2650   6.2652   6.2978   6.3062   6.3107   6.3308   6.3443   6.3646
     6.3737   6.3788   6.3865   6.3914   6.4052   6.4064   6.4098   6.4171
     6.4304   6.4353   6.4446   6.4544   6.4590   6.4615   6.4799   6.4928
     6.5124   6.5159   6.5163   6.5306   6.5587   6.5634   6.5648   6.5892
     6.6244   6.6390   6.6477   6.6609   6.6865   6.7002   6.7035   6.7100
     6.7129   6.7900   6.8081   6.8302   6.9007   6.9038   7.0368   7.0446
     7.0563   7.1589   7.3105   7.3471   7.3800   7.5687   7.5832   7.6134
     7.6835   7.8962   8.1150   8.2719   8.3434   8.4009   8.5023   8.6555
     8.9270   9.0182   9.0663   9.1223   9.2273   9.4169   9.5025   9.5992
     9.6256   9.6731   9.8454   9.8882   9.8995   9.9212   9.9252  10.0437
    10.1182  10.1418  10.2489  10.4139  10.4615  10.5331  10.5512  10.5841
    10.6277  10.7316  10.8576  11.0368  11.0518  11.0607  11.2436  11.3895
    11.4985  11.5491  11.5826  11.6985  11.8924  11.9459  12.0835  12.0924
    12.1921  12.2855  12.3445  12.3901  12.4529  12.5621  12.5976  12.6903
    12.8316  12.9814  13.0403  13.1130  13.1481  13.2451  13.2769  13.2783
    13.3728  13.3735  13.4833  13.5421  13.6267  13.6399  13.6616  13.7673
    13.8338  13.9446  14.0388  14.0745  14.0912  14.1922  14.2433  14.3198
    14.3744  14.3828  14.4085

          k = 0.2917 0.0481 0.0000 ( 55058 PWs)   bands (ev):

    -0.3679  -0.0349   0.4511   0.9342   1.0199   1.1955   1.3533   1.4556
     1.5408   1.5604   1.5753   1.6084   1.6541   1.7428   1.8361   1.8517
     1.8582   1.9269   1.9356   1.9443   1.9687   1.9865   2.0084   2.0150
     2.0593   2.1028   2.1098   2.1686   2.1985   2.2044   2.2247   2.2446
     2.2804   2.3081   2.3261   2.3319   2.3550   2.3930   2.4285   2.4666
     2.4879   2.5137   2.5203   2.5477   2.5523   2.5643   2.5681   2.5777
     2.5964   2.6211   2.6685   2.6825   2.6990   2.7237   2.7341   2.7668
     2.7748   2.7842   2.7884   2.7957   2.8148   2.8213   2.8467   2.8532
     2.8572   2.8982   2.9034   2.9216   2.9351   2.9424   2.9599   3.0441
     3.0564   3.0638   3.0663   3.0851   3.0968   3.1118   3.1120   3.1291
     3.1539   3.1657   3.1790   3.1882   3.2023   3.2066   3.2336   3.2418
     3.2559   3.2568   3.2802   3.3022   3.3072   3.3250   3.3273   3.3483
     3.3493   3.3797   3.3820   3.3984   3.4155   3.4272   3.4352   3.4415
     3.4532   3.4656   3.4692   3.4791   3.4858   3.5125   3.5136   3.5213
     3.5387   3.5939   3.6199   3.6446   3.6486   3.6673   3.6800   3.6888
     3.6940   3.6944   3.7211   3.7454   3.7657   3.7760   3.8069   3.8188
     3.8233   3.8333   3.8503   3.8526   3.8564   3.8647   3.8653   3.8940
     3.8953   3.8963   3.9090   3.9156   3.9292   3.9348   3.9771   3.9804
     3.9859   3.9985   4.0122   4.0210   4.0242   4.0329   4.0457   4.0516
     4.0604   4.0635   4.0672   4.0903   4.1008   4.1009   4.1094   4.1256
     4.1348   4.1567   4.1585   4.1650   4.1717   4.1816   4.1878   4.1921
     4.1937   4.1967   4.2039   4.2579   4.2606   4.2626   4.2645   4.2652
     4.2758   4.2824   4.3029   4.3265   4.3275   4.3625   4.3718   4.3823
     4.3899   4.4017   4.4111   4.4377   4.4434   4.4577   4.4625   4.4689
     4.4875   4.4956   4.5345   4.5439   4.5612   4.5684   4.5955   4.6094
     4.6158   4.6186   4.6226   4.6694   4.6720   4.6960   4.7176   4.7258
     4.7479   4.7571   4.7628   4.7728   4.7917   4.8209   4.8220   4.8453
     4.8496   4.9044   4.9076   4.9123   4.9279   4.9421   4.9474   4.9634
     4.9719   5.0019   5.0083   5.0090   5.0172   5.0351   5.0355   5.0538
     5.0755   5.0855   5.0935   5.1157   5.1189   5.1205   5.1406   5.1599
     5.1795   5.1815   5.1827   5.1833   5.2003   5.2017   5.2228   5.2243
     5.2261   5.2466   5.2858   5.2984   5.3052   5.3307   5.3322   5.3363
     5.3383   5.3493   5.3569   5.3581   5.3743   5.3915   5.4317   5.4378
     5.4455   5.4535   5.4950   5.5070   5.5215   5.5243   5.5275   5.5354
     5.5501   5.5520   5.5779   5.5814   5.6043   5.6306   5.6349   5.6491
     5.6826   5.6986   5.7127   5.7242   5.7257   5.7352   5.7369   5.7836
     5.7902   5.8209   5.8221   5.8333   5.8409   5.8498   5.8657   5.8763
     5.8925   5.8938   5.9151   5.9183   5.9196   5.9231   5.9365   5.9428
     5.9472   5.9645   5.9672   5.9798   5.9957   5.9962   6.0046   6.0221
     6.0347   6.0444   6.0471   6.0552   6.0595   6.0739   6.0749   6.0937
     6.1051   6.1066   6.1111   6.1119   6.1374   6.1511   6.1531   6.1574
     6.1661   6.1704   6.1781   6.1843   6.1868   6.1947   6.2043   6.2081
     6.2191   6.2249   6.2287   6.2328   6.2372   6.2451   6.2463   6.2550
     6.2553   6.2666   6.2716   6.2810   6.2853   6.2906   6.2971   6.3104
     6.3181   6.3239   6.3325   6.3398   6.3533   6.3592   6.3782   6.4021
     6.4110   6.4340   6.4550   6.4574   6.4640   6.4767   6.4869   6.5109
     6.5187   6.5382   6.5429   6.5512   6.5610   6.5731   6.6052   6.6075
     6.6165   6.6331   6.6517   6.7524   6.8336   6.8434   6.8497   7.0250
     7.0432   7.0694   7.1384   7.3219   7.3902   7.4502   7.5048   7.5591
     7.6751   7.7618   7.7769   8.1870   8.3176   8.3275   8.4069   8.5057
     8.5513   8.9505   9.1543   9.1957   9.2039   9.2744   9.3500   9.4316
     9.5608   9.5966   9.8072  10.0619  10.0887  10.1079  10.1143  10.2360
    10.3164  10.4055  10.4275  10.5699  10.6040  10.6502  10.7539  10.8439
    10.9612  10.9785  10.9989  11.2135  11.2963  11.3199  11.4308  11.5299
    11.5649  11.6562  11.7078  11.7442  11.8666  11.8930  12.1669  12.2111
    12.2806  12.3412  12.3797  12.5296  12.6837  12.6966  12.7821  12.7869
    12.7925  12.9220  12.9952  13.0182  13.0290  13.1707  13.1764  13.2655
    13.3817  13.5638  13.6172  13.6375  13.7549  13.7610  13.8095  13.8820
    13.9288  13.9922  14.0036  14.0993  14.1098  14.2530  14.3139  14.3749
    14.4929  14.5557  14.6907

          k = 0.2917 0.1443 0.0000 ( 55039 PWs)   bands (ev):

    -0.2732   0.0570   0.5326   0.5388   0.8262   1.1032   1.2518   1.4454
     1.5141   1.6203   1.6549   1.7085   1.7532   1.7535   1.8921   1.9079
     1.9131   1.9173   1.9602   1.9790   2.0072   2.0177   2.0273   2.0828
     2.1293   2.1383   2.1448   2.1528   2.1893   2.2043   2.2327   2.3010
     2.3165   2.3280   2.3475   2.3574   2.4182   2.4341   2.4353   2.4510
     2.4609   2.4811   2.5195   2.5225   2.5239   2.5383   2.5407   2.5661
     2.5686   2.5991   2.6022   2.6043   2.6063   2.6252   2.6464   2.6513
     2.6556   2.6854   2.7144   2.7794   2.7948   2.8137   2.8171   2.8213
     2.8252   2.8306   2.8465   2.8670   2.8946   2.9314   2.9346   2.9368
     2.9514   2.9852   3.0257   3.0586   3.0861   3.0897   3.1081   3.1119
     3.1388   3.1637   3.1648   3.2038   3.2289   3.2319   3.2649   3.2685
     3.2905   3.2936   3.3121   3.3384   3.3444   3.3452   3.3705   3.3712
     3.3849   3.4125   3.4265   3.4393   3.4528   3.4559   3.4617   3.4670
     3.5057   3.5107   3.5120   3.5393   3.5479   3.5591   3.5597   3.6049
     3.6276   3.6360   3.6485   3.6588   3.6624   3.6768   3.6833   3.6881
     3.6976   3.7306   3.7372   3.7387   3.7485   3.7526   3.7720   3.7993
     3.8002   3.8402   3.8452   3.8816   3.8833   3.8994   3.9064   3.9115
     3.9280   3.9424   3.9459   3.9834   3.9838   3.9840   3.9866   4.0155
     4.0209   4.0318   4.0504   4.0681   4.0773   4.0803   4.0855   4.1023
     4.1092   4.1227   4.1304   4.1406   4.1423   4.1570   4.1588   4.1627
     4.1958   4.1967   4.2083   4.2176   4.2241   4.2324   4.2449   4.2477
     4.2614   4.2739   4.2766   4.2783   4.2795   4.2984   4.2990   4.3069
     4.3113   4.3150   4.3202   4.3331   4.3446   4.3606   4.3654   4.3745
     4.3776   4.3886   4.3963   4.4473   4.4484   4.4567   4.4712   4.4712
     4.4755   4.5009   4.5324   4.5349   4.5449   4.5578   4.5774   4.5883
     4.6040   4.6110   4.6215   4.6455   4.6810   4.7054   4.7222   4.7246
     4.7456   4.7481   4.7703   4.7768   4.7789   4.7881   4.7892   4.8284
     4.8643   4.8658   4.8760   4.8846   4.8861   4.8899   4.9351   4.9386
     4.9499   4.9598   4.9608   4.9693   4.9780   4.9819   4.9933   5.0012
     5.0205   5.0228   5.0339   5.0605   5.0702   5.0776   5.1158   5.1208
     5.1380   5.1407   5.1418   5.1764   5.1800   5.1883   5.1922   5.2045
     5.2350   5.2364   5.2411   5.2655   5.2783   5.2808   5.2839   5.3083
     5.3147   5.3302   5.3405   5.3509   5.3678   5.3713   5.3907   5.4078
     5.4249   5.4410   5.4762   5.4764   5.4769   5.4833   5.5004   5.5012
     5.5014   5.5482   5.5621   5.5692   5.6041   5.6069   5.6085   5.6378
     5.6395   5.6444   5.6461   5.6785   5.7056   5.7066   5.7250   5.7644
     5.7705   5.7818   5.7931   5.8028   5.8060   5.8061   5.8250   5.8300
     5.8498   5.8640   5.8655   5.8679   5.8726   5.8742   5.8746   5.9028
     5.9343   5.9469   5.9603   5.9628   5.9905   6.0005   6.0152   6.0247
     6.0372   6.0388   6.0401   6.0551   6.0700   6.0712   6.0793   6.0844
     6.0973   6.0976   6.1136   6.1142   6.1174   6.1277   6.1389   6.1582
     6.1585   6.1674   6.1730   6.1741   6.1872   6.2027   6.2081   6.2199
     6.2304   6.2331   6.2468   6.2485   6.2507   6.2603   6.2656   6.2728
     6.2728   6.2772   6.2790   6.2849   6.2878   6.2931   6.3086   6.3210
     6.3268   6.3431   6.3594   6.3652   6.3889   6.3936   6.3985   6.4058
     6.4063   6.4320   6.4491   6.4510   6.4819   6.4913   6.5060   6.5126
     6.5222   6.5432   6.5534   6.5658   6.5659   6.5897   6.6062   6.6198
     6.6324   6.6380   6.6433   6.6858   6.6892   6.7297   6.9244   6.9247
     7.0479   7.0653   7.2740   7.4938   7.5483   7.7307   7.7763   7.8008
     7.9452   7.9758   8.1508   8.2575   8.2735   8.2895   8.3698   8.5300
     8.5463   8.5880   8.6314   8.8933   9.1128   9.1191   9.2909   9.3416
     9.6030   9.6246   9.7716   9.8273   9.8986  10.0791  10.1321  10.2286
    10.2449  10.2738  10.5217  10.6216  10.7042  10.7222  10.7303  10.8691
    11.0463  11.1561  11.2131  11.2897  11.2952  11.3936  11.4103  11.4934
    11.5979  11.6754  11.8268  11.8562  11.8663  11.9338  11.9899  12.2275
    12.2620  12.3668  12.3864  12.4261  12.4968  12.6324  12.8160  12.8850
    12.9059  12.9942  13.0533  13.0566  13.1420  13.3113  13.3801  13.4297
    13.4738  13.5617  13.6658  13.7753  13.7854  13.8453  13.9321  13.9660
    13.9696  14.0723  14.1193  14.2739  14.2917  14.3064  14.3938  14.4482
    14.4597  14.6411  14.6501

          k = 0.2917 0.2406 0.0000 ( 55053 PWs)   bands (ev):

    -0.0865   0.1858   0.2374   0.4985   0.7099   0.9540   1.2644   1.4410
     1.4600   1.4903   1.6634   1.6925   1.7736   1.8937   1.9118   1.9302
     1.9509   1.9844   2.0384   2.0467   2.1078   2.1107   2.1115   2.1414
     2.1657   2.1858   2.1977   2.2007   2.2151   2.2357   2.2487   2.2931
     2.3162   2.3181   2.3263   2.3328   2.3628   2.3654   2.3756   2.3857
     2.4307   2.4338   2.4620   2.4671   2.4852   2.5089   2.5097   2.5372
     2.5513   2.5629   2.5868   2.5917   2.5992   2.6208   2.6454   2.6637
     2.6784   2.6825   2.6916   2.7284   2.7309   2.7644   2.7659   2.7660
     2.7812   2.8203   2.8367   2.8679   2.8721   2.8938   2.8950   2.9182
     2.9233   2.9538   2.9795   2.9893   2.9984   3.0498   3.0778   3.0835
     3.1143   3.1697   3.1772   3.1929   3.1967   3.2461   3.2507   3.2641
     3.2821   3.2914   3.3062   3.3229   3.3322   3.3421   3.3686   3.4056
     3.4119   3.4541   3.4595   3.4750   3.4862   3.4863   3.4880   3.5107
     3.5186   3.5224   3.5507   3.5661   3.5823   3.5853   3.5860   3.5953
     3.6084   3.6240   3.6441   3.6613   3.6743   3.6952   3.6991   3.7273
     3.7444   3.7467   3.7602   3.8141   3.8196   3.8360   3.8494   3.8576
     3.8903   3.8915   3.8922   3.8975   3.9201   3.9215   3.9386   3.9648
     3.9709   3.9944   3.9944   4.0214   4.0352   4.0369   4.0445   4.0531
     4.0547   4.0662   4.0703   4.0853   4.0916   4.1068   4.1084   4.1252
     4.1355   4.1357   4.1385   4.1724   4.1753   4.1855   4.1952   4.2119
     4.2250   4.2319   4.2337   4.2467   4.2529   4.2619   4.2644   4.2795
     4.2897   4.2897   4.3137   4.3137   4.3321   4.3392   4.3408   4.3499
     4.3582   4.3693   4.3780   4.3813   4.3985   4.4065   4.4095   4.4364
     4.4400   4.4469   4.4493   4.4590   4.4716   4.5035   4.5197   4.5280
     4.5361   4.5543   4.5637   4.5806   4.5841   4.5866   4.5951   4.6079
     4.6095   4.6278   4.6327   4.6436   4.6456   4.6644   4.6741   4.6841
     4.6880   4.7017   4.7019   4.7119   4.7153   4.7319   4.7355   4.7528
     4.7756   4.7843   4.7949   4.8115   4.8156   4.8460   4.8614   4.8700
     4.8792   4.8835   4.8952   4.9263   4.9505   4.9568   4.9600   4.9688
     4.9824   5.0013   5.0078   5.0128   5.0314   5.0385   5.0689   5.0744
     5.0995   5.1175   5.1236   5.1378   5.1399   5.1422   5.1920   5.1933
     5.2004   5.2363   5.2510   5.2562   5.2674   5.2732   5.2742   5.3282
     5.3488   5.3517   5.3590   5.3631   5.3689   5.3694   5.3938   5.4212
     5.4299   5.4353   5.4442   5.4746   5.4757   5.4834   5.4862   5.4968
     5.5076   5.5276   5.5318   5.5351   5.5619   5.5666   5.5752   5.5824
     5.5879   5.6162   5.6234   5.6323   5.6586   5.6667   5.6729   5.6741
     5.6832   5.6846   5.7017   5.7038   5.7510   5.7619   5.7682   5.7792
     5.7852   5.7939   5.8157   5.8217   5.8261   5.8335   5.8400   5.8487
     5.8631   5.8633   5.8666   5.8957   5.9248   5.9261   5.9513   5.9725
     5.9807   5.9827   6.0351   6.0403   6.0439   6.0446   6.0591   6.0742
     6.0782   6.0987   6.1183   6.1249   6.1334   6.1457   6.1502   6.1531
     6.1661   6.1744   6.1849   6.1850   6.1850   6.2036   6.2163   6.2165
     6.2169   6.2222   6.2271   6.2343   6.2433   6.2500   6.2574   6.2655
     6.2751   6.2812   6.2943   6.2991   6.3217   6.3315   6.3324   6.3390
     6.3450   6.3680   6.3790   6.3867   6.4064   6.4064   6.4118   6.4447
     6.4484   6.4571   6.4767   6.4815   6.5000   6.5278   6.5279   6.5320
     6.5519   6.5559   6.5595   6.5711   6.5797   6.6251   6.6370   6.6462
     6.6610   6.6882   6.7072   6.7858   6.9632   7.0526   7.0718   7.0724
     7.1244   7.1976   7.2156   7.4952   7.6056   7.6510   7.6810   7.8154
     7.8624   7.8905   7.9145   8.2540   8.4280   8.4911   8.5653   8.5741
     8.5796   8.7092   8.7554   8.9832   9.0192   9.1775   9.3041   9.3183
     9.4020   9.4512   9.6119   9.7536   9.8261   9.9024   9.9147  10.1068
    10.2201  10.2960  10.4216  10.4931  10.5535  10.7647  10.8096  10.8738
    11.0009  11.0828  11.1013  11.1538  11.2807  11.2939  11.2964  11.4191
    11.5453  11.7826  11.8597  12.0280  12.1211  12.1903  12.3048  12.3495
    12.3903  12.4784  12.4983  12.6506  12.6591  12.7771  12.8746  12.9365
    12.9769  13.0762  13.1662  13.1678  13.2626  13.3216  13.4158  13.5244
    13.5390  13.7076  13.7484  13.7666  13.8268  13.9554  13.9641  14.0431
    14.1424  14.2055  14.2494  14.3750  14.3759  14.4866  14.5300  14.5539
    14.5900  14.6824  14.7066

          k = 0.3750 0.0481 0.0000 ( 55067 PWs)   bands (ev):

    -0.0846   0.2400   0.7140   1.0432   1.1487   1.2720   1.2944   1.3873
     1.5597   1.5862   1.6525   1.7201   1.7421   1.7842   1.7875   1.8189
     1.9844   2.0166   2.0457   2.0640   2.0744   2.1065   2.1175   2.1585
     2.1598   2.1607   2.1813   2.2210   2.2484   2.2685   2.2787   2.3424
     2.3865   2.4082   2.4493   2.4521   2.4582   2.4967   2.5077   2.5234
     2.5874   2.5949   2.5971   2.5987   2.6203   2.6394   2.6680   2.6956
     2.7211   2.7224   2.7239   2.7324   2.7397   2.7627   2.7890   2.7938
     2.8032   2.8652   2.8653   2.8673   2.8859   2.8997   2.9062   2.9230
     2.9331   2.9373   2.9516   2.9523   2.9917   2.9947   3.0088   3.0233
     3.0252   3.0442   3.0848   3.1099   3.1114   3.1270   3.1437   3.1681
     3.1692   3.1791   3.1889   3.1943   3.2295   3.2307   3.2329   3.2436
     3.2545   3.2595   3.2838   3.2873   3.2959   3.3046   3.3240   3.3245
     3.3290   3.3481   3.3630   3.3796   3.3834   3.3984   3.4114   3.4145
     3.4517   3.4520   3.4593   3.4711   3.4805   3.4893   3.5049   3.5224
     3.5335   3.5487   3.5778   3.5964   3.5998   3.6110   3.6514   3.6613
     3.6688   3.6838   3.6933   3.7052   3.7102   3.7162   3.7227   3.7752
     3.8099   3.8315   3.8376   3.8417   3.8471   3.8619   3.8622   3.8636
     3.8813   3.8854   3.9089   3.9338   3.9346   3.9347   3.9533   3.9580
     3.9742   3.9758   3.9930   4.0021   4.0117   4.0332   4.0340   4.0459
     4.0521   4.0544   4.0563   4.0807   4.0814   4.0962   4.0973   4.1063
     4.1105   4.1259   4.1322   4.1486   4.1558   4.1753   4.1861   4.1978
     4.2022   4.2037   4.2120   4.2203   4.2585   4.2722   4.2909   4.2964
     4.2967   4.2983   4.3330   4.3408   4.3421   4.3454   4.3578   4.3788
     4.3870   4.4072   4.4216   4.4275   4.4400   4.4497   4.4510   4.4529
     4.4900   4.4994   4.5131   4.5339   4.5553   4.5610   4.5975   4.6016
     4.6045   4.6208   4.6296   4.6364   4.6468   4.6524   4.6567   4.6794
     4.6796   4.6878   4.7162   4.7168   4.7303   4.7569   4.7614   4.7935
     4.7960   4.8001   4.8321   4.8684   4.8996   4.9235   4.9255   4.9365
     4.9393   4.9534   4.9556   4.9594   4.9630   4.9784   5.0018   5.0069
     5.0097   5.0268   5.0296   5.0611   5.0615   5.0624   5.0759   5.0781
     5.1055   5.1085   5.1360   5.1588   5.1606   5.1699   5.1785   5.1985
     5.2096   5.2167   5.2257   5.2320   5.2498   5.2578   5.2592   5.2645
     5.2734   5.2991   5.3292   5.3344   5.3385   5.3529   5.3734   5.3776
     5.3968   5.4210   5.4283   5.4286   5.4430   5.4740   5.5020   5.5062
     5.5146   5.5326   5.5438   5.5579   5.5663   5.5818   5.5875   5.5883
     5.5884   5.6050   5.6051   5.6464   5.6576   5.6591   5.6681   5.6829
     5.7009   5.7050   5.7090   5.7091   5.7298   5.7328   5.7332   5.7562
     5.7638   5.7912   5.8047   5.8066   5.8364   5.8484   5.8937   5.8943
     5.9056   5.9092   5.9234   5.9291   5.9370   5.9462   5.9534   5.9658
     5.9713   5.9811   5.9937   5.9955   5.9984   6.0272   6.0446   6.0454
     6.0552   6.0587   6.0650   6.0671   6.0849   6.0909   6.1018   6.1021
     6.1099   6.1129   6.1185   6.1402   6.1454   6.1464   6.1497   6.1584
     6.1734   6.1742   6.1876   6.1891   6.1926   6.1985   6.2010   6.2042
     6.2056   6.2155   6.2268   6.2299   6.2434   6.2471   6.2514   6.2740
     6.2819   6.2968   6.3020   6.3195   6.3198   6.3241   6.3369   6.3377
     6.3414   6.3524   6.3831   6.3984   6.4279   6.4375   6.4443   6.4443
     6.4674   6.4763   6.4812   6.4966   6.5003   6.5418   6.5516   6.5624
     6.5972   6.6062   6.6176   6.6194   6.6486   6.7402   6.7659   6.9106
     7.0281   7.0356   7.0979   7.1077   7.1109   7.2480   7.3597   7.4693
     7.7230   7.7554   7.7938   7.9447   8.0549   8.2669   8.5444   8.5653
     8.6215   8.7745   8.8095   9.2501   9.2767   9.4288   9.5098   9.5953
     9.6424   9.6723   9.8008   9.9116  10.1949  10.2084  10.3043  10.3818
    10.4572  10.5648  10.5683  10.5810  10.6072  10.6578  10.6672  10.9100
    10.9662  11.0597  11.1384  11.2196  11.2813  11.3055  11.4244  11.5624
    11.5724  11.5769  11.8825  12.0165  12.0314  12.1813  12.2921  12.3728
    12.4710  12.5364  12.6540  12.7612  12.7967  12.9503  13.0297  13.0913
    13.1358  13.1713  13.1759  13.2720  13.4006  13.4149  13.5095  13.5855
    13.5985  13.7313  13.8514  13.8722  13.8967  13.9949  14.0613  14.1349
    14.1416  14.1712  14.2963  14.3054  14.3871  14.4292  14.5281  14.5539
    14.5584  14.6077  14.8962

          k = 0.3750 0.1443 0.0000 ( 55097 PWs)   bands (ev):

     0.0044   0.3250   0.7649   0.7925   1.0402   1.0802   1.3258   1.3421
     1.4111   1.4343   1.6408   1.6658   1.8476   1.8862   1.8929   1.9332
     1.9967   2.0400   2.0446   2.0490   2.1098   2.1636   2.1800   2.1981
     2.2131   2.2222   2.2322   2.2387   2.2537   2.3215   2.3723   2.3757
     2.3834   2.3942   2.4171   2.4660   2.4678   2.4960   2.5112   2.5289
     2.5443   2.5601   2.5709   2.5932   2.6086   2.6277   2.6333   2.6571
     2.6865   2.6872   2.6938   2.6985   2.7138   2.7331   2.7414   2.7476
     2.7636   2.8055   2.8088   2.8104   2.8461   2.8545   2.8814   2.9026
     2.9241   2.9284   2.9395   2.9424   2.9486   2.9533   2.9571   2.9807
     3.0350   3.0614   3.0715   3.1121   3.1220   3.1265   3.1646   3.1754
     3.1934   3.2017   3.2081   3.2243   3.2349   3.2639   3.2742   3.2754
     3.2780   3.2909   3.2916   3.3120   3.3143   3.3201   3.3233   3.3269
     3.3510   3.3760   3.3939   3.3961   3.4242   3.4607   3.4610   3.4657
     3.4970   3.5009   3.5142   3.5233   3.5331   3.5376   3.5479   3.5583
     3.5745   3.5791   3.5924   3.5949   3.6157   3.6270   3.6323   3.6425
     3.6456   3.7011   3.7019   3.7046   3.7156   3.7411   3.7502   3.7746
     3.8005   3.8070   3.8460   3.8546   3.8780   3.8986   3.8990   3.9004
     3.9095   3.9142   3.9196   3.9453   3.9649   3.9696   3.9866   3.9930
     3.9930   4.0006   4.0213   4.0256   4.0471   4.0535   4.0611   4.0654
[...]
     4.9106   4.9275   4.9353   4.9413   4.9564   4.9620   4.9725   4.9729
     4.9837   4.9989   5.0192   5.0299   5.0377   5.0465   5.0565   5.0632
     5.0696   5.0882   5.1354   5.1385   5.1419   5.1520   5.1604   5.1817
     5.1928   5.2009   5.2160   5.2245   5.2317   5.2382   5.2385   5.2497
     5.2622   5.2650   5.2688   5.2855   5.2873   5.2993   5.3199   5.3219
     5.3521   5.3538   5.3790   5.3898   5.4062   5.4140   5.4167   5.4187
     5.4241   5.4504   5.4521   5.4534   5.4784   5.4896   5.5110   5.5350
     5.5427   5.5471   5.5557   5.5768   5.5768   5.6001   5.6226   5.6270
     5.6567   5.6590   5.6606   5.6750   5.6759   5.6971   5.6998   5.7093
     5.7104   5.7246   5.7287   5.7470   5.7607   5.8050   5.8075   5.8213
     5.8241   5.8546   5.8650   5.8668   5.8824   5.8889   5.8964   5.9165
     5.9395   5.9406   5.9426   5.9574   5.9591   5.9806   5.9825   5.9954
     5.9986   6.0110   6.0283   6.0515   6.0528   6.0658   6.0668   6.0703
     6.0725   6.0858   6.0970   6.1009   6.1082   6.1223   6.1293   6.1425
     6.1520   6.1543   6.1622   6.1675   6.1698   6.1782   6.1961   6.2138
     6.2142   6.2209   6.2211   6.2349   6.2390   6.2597   6.2741   6.2766
     6.2825   6.2839   6.2945   6.3192   6.3228   6.3285   6.3459   6.3472
     6.3745   6.3752   6.3795   6.3879   6.3961   6.4043   6.4056   6.4092
     6.4345   6.4633   6.4699   6.4867   6.5193   6.5290   6.5605   6.5807
     6.5844   6.5916   6.5939   6.6048   6.6689   6.7172   6.7854   6.7994
     6.8274   6.8683   6.9978   7.0629   7.1345   7.2655   7.3380   7.3796
     7.6220   7.6911   7.8919   8.0544   8.0607   8.0795   8.4061   8.4152
     8.7454   8.9185   8.9280   8.9783   9.2564   9.2890   9.5703   9.6859
     9.8606   9.8719   9.8789   9.9775  10.0900  10.2000  10.2071  10.3143
    10.3641  10.4600  10.6742  10.7058  10.7284  10.7897  10.8917  10.9388
    10.9854  11.0332  11.1307  11.2359  11.2425  11.2823  11.5722  11.6063
    11.7216  11.7566  11.8985  11.9043  12.2160  12.2255  12.3718  12.4558
    12.5404  12.6017  12.7297  12.7433  12.8885  13.0226  13.0519  13.0808
    13.1578  13.2150  13.3231  13.3387  13.4663  13.4683  13.5777  13.8357
    13.8429  13.8834  13.8890  13.9142  14.1444  14.1703  14.2823  14.4031
    14.4102  14.5048  14.5547  14.6909  14.7361  14.8479  14.8647  14.9130
    14.9232  14.9387  15.0711

          k = 0.4583 0.1443 0.0000 ( 55107 PWs)   bands (ev):

     0.3333   0.6380   0.6988   0.9788   1.0133   1.0804   1.2412   1.2640
     1.3800   1.4720   1.6002   1.6100   1.7608   1.8465   1.9945   2.0412
     2.0651   2.0787   2.0843   2.1755   2.2537   2.2540   2.2715   2.2722
     2.2975   2.3061   2.3272   2.3591   2.3684   2.4028   2.4254   2.4336
     2.4504   2.4614   2.4715   2.4807   2.4998   2.5021   2.5440   2.5456
     2.5733   2.5949   2.5974   2.6220   2.6594   2.6747   2.6772   2.6811
     2.6945   2.7227   2.7599   2.7748   2.7762   2.7802   2.7974   2.8074
     2.8115   2.8326   2.8378   2.8538   2.8596   2.8697   2.8874   2.9300
     2.9323   2.9383   2.9463   2.9790   2.9961   3.0143   3.0356   3.0692
     3.0796   3.0824   3.0844   3.1258   3.1369   3.1604   3.1783   3.1825
     3.2007   3.2246   3.2394   3.2422   3.2676   3.2740   3.2741   3.2746
     3.3072   3.3116   3.3144   3.3283   3.3344   3.3392   3.3603   3.3674
     3.3840   3.3846   3.4120   3.4218   3.4238   3.4349   3.4608   3.4617
     3.4700   3.4764   3.4793   3.4960   3.5088   3.5316   3.5336   3.5473
     3.5512   3.5557   3.5685   3.5878   3.6221   3.6230   3.6273   3.6413
     3.6611   3.6750   3.6915   3.6998   3.7079   3.7385   3.7511   3.7627
     3.7708   3.7795   3.8157   3.8160   3.8363   3.8388   3.8535   3.8623
     3.8701   3.8763   3.8973   3.9149   3.9443   3.9453   3.9551   3.9591
     3.9937   3.9947   3.9988   4.0082   4.0248   4.0266   4.0547   4.0723
     4.0728   4.0820   4.1114   4.1158   4.1352   4.1402   4.1455   4.1462
     4.1517   4.1608   4.1687   4.1761   4.1854   4.1982   4.2031   4.2063
     4.2131   4.2164   4.2229   4.2261   4.2290   4.2326   4.2458   4.2464
     4.2669   4.2764   4.2777   4.2880   4.2985   4.2987   4.3105   4.3179
     4.3305   4.3689   4.3701   4.3805   4.3805   4.3887   4.4332   4.4538
     4.4643   4.4660   4.4719   4.4882   4.4946   4.5212   4.5234   4.5756
     4.5985   4.6014   4.6137   4.6409   4.6536   4.6546   4.6600   4.6771
     4.6838   4.6984   4.7063   4.7096   4.7194   4.7419   4.7589   4.7697
     4.7757   4.8297   4.8451   4.8509   4.8596   4.8666   4.8750   4.8758
     4.8995   4.9085   4.9257   4.9276   4.9486   4.9633   4.9656   4.9865
     4.9893   4.9924   5.0060   5.0081   5.0293   5.0355   5.0419   5.0659
     5.0720   5.0993   5.1150   5.1158   5.1304   5.1464   5.1483   5.1489
     5.1584   5.1941   5.1954   5.2023   5.2106   5.2237   5.2264   5.2341
     5.2419   5.2458   5.2524   5.2610   5.2834   5.2913   5.3125   5.3205
     5.3244   5.3284   5.3304   5.3402   5.3554   5.3615   5.3867   5.4082
     5.4121   5.4192   5.4259   5.4269   5.4285   5.4376   5.4490   5.4772
     5.4823   5.4959   5.5098   5.5211   5.5355   5.5457   5.5523   5.5849
     5.5929   5.5984   5.6082   5.6215   5.6317   5.6324   5.6365   5.6381
     5.6648   5.6742   5.6911   5.6935   5.6942   5.7056   5.7215   5.7355
     5.7450   5.7455   5.7681   5.7721   5.7737   5.7856   5.7967   5.8189
     5.8218   5.8356   5.8689   5.8718   5.9138   5.9256   5.9280   5.9436
     5.9463   5.9476   5.9555   5.9749   5.9820   5.9821   6.0102   6.0162
     6.0246   6.0274   6.0327   6.0714   6.0917   6.1037   6.1079   6.1129
     6.1343   6.1452   6.1595   6.1621   6.1763   6.1902   6.2047   6.2050
     6.2051   6.2080   6.2162   6.2564   6.2600   6.2751   6.2817   6.2832
     6.2864   6.2970   6.2972   6.3196   6.3425   6.3543   6.3648   6.3788
     6.3891   6.3946   6.4001   6.4470   6.4537   6.4601   6.4613   6.4891
     6.4933   6.4983   6.5168   6.5402   6.5432   6.5993   6.6069   6.6190
     6.6297   6.6424   6.7424   6.8479   6.8541   6.9993   7.0642   7.0846
     7.1194   7.2421   7.3239   7.3245   7.3415   7.4301   7.5134   7.5805
     7.7311   7.8221   8.0152   8.1139   8.2147   8.2561   8.4529   8.5499
     8.7955   8.8001   8.9361   9.0778   9.0921   9.1199   9.1200   9.2793
     9.4350   9.4446   9.4481   9.6588   9.8411   9.9825  10.0122  10.1377
    10.1753  10.4072  10.4494  10.4915  10.6180  10.7169  10.9127  11.1102
    11.2247  11.3089  11.3203  11.4991  11.5990  11.6359  11.7603  11.7672
    11.8740  12.0288  12.0816  12.1876  12.2589  12.3867  12.4922  12.5807
    12.6147  12.7648  12.7787  12.9111  12.9158  13.0215  13.1304  13.1928
    13.2288  13.2739  13.3037  13.4210  13.4526  13.6131  13.6770  13.7424
    13.7510  13.8654  14.0068  14.0385  14.1162  14.1444  14.1999  14.2534
    14.3436  14.4555  14.4672  14.6097  14.6253  14.6717  14.7228  14.7738
    14.8793  14.8925  15.0172

          k = 0.4583 0.2406 0.0000 ( 55107 PWs)   bands (ev):

     0.4901   0.7196   0.7834   0.8245   0.9952   1.0080   1.0910   1.2051
     1.2570   1.3854   1.4638   1.5912   1.6939   1.8291   1.8813   1.9455
     2.1292   2.2126   2.2303   2.2343   2.2907   2.3020   2.3255   2.3295
     2.3450   2.3581   2.3766   2.3992   2.4064   2.4123   2.4232   2.4264
     2.4283   2.4604   2.4839   2.4858   2.5136   2.5377   2.5648   2.5758
     2.5801   2.5881   2.5983   2.5986   2.6209   2.6352   2.6615   2.6943
     2.7150   2.7167   2.7268   2.7431   2.7451   2.7602   2.7758   2.7810
     2.8067   2.8148   2.8345   2.8372   2.8556   2.8596   2.8610   2.9118
     2.9197   2.9374   2.9569   3.0113   3.0221   3.0566   3.0677   3.0805
     3.0828   3.0852   3.1110   3.1308   3.1430   3.1803   3.1966   3.1989
     3.2090   3.2124   3.2233   3.2250   3.2284   3.2629   3.2674   3.3166
     3.3245   3.3292   3.3476   3.3607   3.3733   3.3733   3.3759   3.4097
     3.4139   3.4348   3.4389   3.4390   3.4644   3.4733   3.4749   3.4861
     3.4963   3.5063   3.5151   3.5187   3.5382   3.5390   3.5580   3.5710
     3.5765   3.5921   3.5983   3.6017   3.6211   3.6245   3.6253   3.6261
     3.6621   3.6934   3.6962   3.7152   3.7190   3.7210   3.7305   3.7344
     3.7459   3.7770   3.7904   3.8108   3.8253   3.8494   3.8557   3.8751
     3.9044   3.9165   3.9226   3.9246   3.9308   3.9784   3.9924   4.0057
     4.0126   4.0283   4.0391   4.0393   4.0686   4.0858   4.0913   4.0969
     4.0979   4.1142   4.1203   4.1296   4.1351   4.1425   4.1625   4.1640
     4.1649   4.1711   4.1783   4.1812   4.1972   4.1988   4.1995   4.1998
     4.2102   4.2141   4.2187   4.2309   4.2317   4.2318   4.2374   4.2389
     4.2503   4.2579   4.2679   4.2784   4.2827   4.3153   4.3280   4.3447
     4.3561   4.3626   4.3720   4.3895   4.4066   4.4267   4.4296   4.4344
     4.4626   4.4631   4.4842   4.4911   4.5224   4.5406   4.5499   4.5660
     4.5770   4.5908   4.6078   4.6397   4.6476   4.6522   4.6668   4.6845
     4.6860   4.6992   4.7037   4.7446   4.7456   4.7649   4.7790   4.7974
     4.8058   4.8114   4.8235   4.8281   4.8301   4.8587   4.8723   4.8739
     4.8800   4.8860   4.8884   4.8946   4.9184   4.9464   4.9535   4.9648
     4.9813   4.9913   4.9930   5.0146   5.0229   5.0342   5.0424   5.0587
     5.0607   5.0734   5.0784   5.0865   5.1212   5.1335   5.1353   5.1486
     5.1513   5.1554   5.1611   5.1618   5.1854   5.1902   5.1909   5.2044
     5.2071   5.2221   5.2284   5.2321   5.2392   5.2425   5.2463   5.2586
     5.2646   5.2835   5.2887   5.3119   5.3160   5.3274   5.3311   5.3446
     5.3555   5.3762   5.3807   5.3951   5.3952   5.3986   5.4131   5.4318
     5.4341   5.4460   5.4561   5.4576   5.4592   5.4743   5.4745   5.4950
     5.5089   5.5185   5.5321   5.5359   5.5554   5.5643   5.5679   5.5770
     5.5936   5.6046   5.6216   5.6448   5.6451   5.6472   5.6579   5.6787
     5.6857   5.7121   5.7297   5.7428   5.7491   5.7626   5.7691   5.7723
     5.7762   5.7979   5.8070   5.8105   5.8325   5.8581   5.8597   5.8762
     5.9020   5.9104   5.9462   5.9467   5.9579   5.9629   5.9685   5.9770
     6.0526   6.0561   6.0730   6.0732   6.0887   6.1069   6.1074   6.1080
     6.1226   6.1391   6.1400   6.1499   6.1573   6.1651   6.1818   6.1857
     6.2138   6.2188   6.2333   6.2468   6.2976   6.3310   6.3375   6.3454
     6.3622   6.3650   6.3764   6.3833   6.3851   6.3866   6.3943   6.4091
     6.4163   6.4484   6.4526   6.4779   6.4780   6.4784   6.5015   6.5173
     6.5364   6.5466   6.5481   6.5652   6.6058   6.6345   6.6369   6.6371
     6.6816   6.6916   6.6969   6.7462   6.9339   7.0625   7.1468   7.2575
     7.5253   7.5293   7.5832   7.6862   7.8060   7.8155   7.8493   7.8703
     8.0012   8.1133   8.1924   8.2136   8.2981   8.3494   8.4064   8.4240
     8.5149   8.6485   8.6488   8.6701   8.7882   8.9664   9.0637   9.1464
     9.2312   9.2985   9.3146   9.4963   9.5762   9.6973   9.8241  10.0040
    10.2244  10.2643  10.2981  10.3937  10.5520  10.5645  10.6809  10.9349
    11.0861  11.2965  11.4509  11.5487  11.6655  11.8309  11.9312  12.0006
    12.0633  12.2787  12.3150  12.3562  12.7415  12.7791  12.8732  12.8934
    12.9051  13.0224  13.0937  13.1006  13.1795  13.2273  13.2491  13.2593
    13.2949  13.3789  13.4404  13.4716  13.5040  13.5235  13.7598  13.7658
    13.8164  13.9333  13.9337  13.9393  14.0263  14.0489  14.0698  14.1274
    14.1621  14.2310  14.2431  14.3227  14.3738  14.4013  14.4229  14.5571
    14.6070  14.7699  14.8822

     the Fermi energy is     8.2691 ev

!    total energy              =   -7346.35669839 Ry
     estimated scf accuracy    <       0.00000081 Ry
     smearing contrib. (-TS)   =       0.09475738 Ry
     internal energy E=F+TS    =   -7346.45145577 Ry

     The total energy is F=E-TS. E is the sum of the following terms:
     one-electron contribution =  -33899.07395584 Ry
     hartree contribution      =   17698.19839076 Ry
     xc contribution           =   -3551.00790334 Ry
     ewald contribution        =   12405.43201265 Ry

     convergence has been achieved in  21 iterations

     negative rho (up, down):  1.957E+00 0.000E+00

     Forces acting on atoms (cartesian axes, Ry/au):

     atom    1 type  1   force =     0.00000000   -0.00165193    0.02686305
     atom    2 type  1   force =     0.00000000   -0.00165167    0.02686366
     atom    3 type  1   force =     0.00000000   -0.00165167    0.02686337
     atom    4 type  1   force =     0.00000000   -0.00165164    0.02686314
     atom    5 type  1   force =     0.00000011    0.00334970   -0.01638778
     atom    6 type  1   force =    -0.00000011    0.00334970   -0.01638778
     atom    7 type  1   force =     0.00000004    0.00334966   -0.01638780
     atom    8 type  1   force =    -0.00000004    0.00334966   -0.01638780
     atom    9 type  1   force =     0.00000000   -0.00159496   -0.00947086
     atom   10 type  1   force =     0.00000000   -0.00159474   -0.00947096
     atom   11 type  1   force =     0.00000000   -0.00159497   -0.00947083
     atom   12 type  1   force =     0.00000000   -0.00159487   -0.00947073
     atom   13 type  1   force =     0.00000000    0.00056090   -0.00372995
     atom   14 type  1   force =     0.00000000    0.00056090   -0.00372990
     atom   15 type  1   force =    -0.00000003   -0.00053471    0.00468636
     atom   16 type  1   force =     0.00000003   -0.00053471    0.00468636
     atom   17 type  1   force =     0.00000000    0.00056089   -0.00372988
     atom   18 type  1   force =     0.00000000    0.00056079   -0.00372977
     atom   19 type  1   force =    -0.00000003   -0.00053474    0.00468636
     atom   20 type  1   force =     0.00000003   -0.00053474    0.00468636
     atom   21 type  1   force =     0.00000000    0.00028565   -0.00068290
     atom   22 type  1   force =     0.00000000    0.00028563   -0.00068296
     atom   23 type  1   force =     0.00000000   -0.00045327   -0.00045443
     atom   24 type  1   force =     0.00000000    0.00028568   -0.00068295
     atom   25 type  1   force =     0.00000007   -0.00045317   -0.00045424
     atom   26 type  1   force =    -0.00000000   -0.00045327   -0.00045443
     atom   27 type  1   force =    -0.00000007   -0.00045317   -0.00045424
     atom   28 type  1   force =     0.00000000    0.00028566   -0.00068292
     atom   29 type  1   force =    -0.00000001   -0.00018679    0.00043518
     atom   30 type  1   force =     0.00000000    0.00019779   -0.00053988
     atom   31 type  1   force =    -0.00000002   -0.00018670    0.00043516
     atom   32 type  1   force =     0.00000002   -0.00018670    0.00043516
     atom   33 type  1   force =     0.00000001   -0.00018679    0.00043518
     atom   34 type  1   force =     0.00000000    0.00019771   -0.00053998
     atom   35 type  1   force =     0.00000000    0.00019792   -0.00053998
     atom   36 type  1   force =     0.00000000    0.00019780   -0.00053982
     atom   37 type  1   force =     0.00000000    0.00018857   -0.00043822
     atom   38 type  1   force =     0.00000000    0.00018853   -0.00043821
     atom   39 type  1   force =     0.00000001   -0.00019717    0.00053891
     atom   40 type  1   force =    -0.00000001   -0.00019717    0.00053891
     atom   41 type  1   force =    -0.00000003   -0.00019721    0.00053887
     atom   42 type  1   force =     0.00000000    0.00018850   -0.00043810
     atom   43 type  1   force =     0.00000000    0.00018851   -0.00043822
     atom   44 type  1   force =     0.00000003   -0.00019721    0.00053887
     atom   45 type  1   force =     0.00000000    0.00045392    0.00045916
     atom   46 type  1   force =     0.00000000    0.00045401    0.00045897
     atom   47 type  1   force =     0.00000000    0.00045399    0.00045901
     atom   48 type  1   force =     0.00000000    0.00045411    0.00045904
     atom   49 type  1   force =     0.00000001   -0.00028490    0.00068550
     atom   50 type  1   force =    -0.00000001   -0.00028490    0.00068550
     atom   51 type  1   force =     0.00000005   -0.00028491    0.00068535
     atom   52 type  1   force =    -0.00000005   -0.00028491    0.00068535
     atom   53 type  1   force =     0.00000000    0.00053585   -0.00469126
     atom   54 type  1   force =    -0.00000001   -0.00056023    0.00372234
     atom   55 type  1   force =    -0.00000004   -0.00056029    0.00372227
     atom   56 type  1   force =     0.00000001   -0.00056023    0.00372234
     atom   57 type  1   force =     0.00000004   -0.00056029    0.00372227
     atom   58 type  1   force =     0.00000000    0.00053573   -0.00469123
     atom   59 type  1   force =     0.00000000    0.00053579   -0.00469128
     atom   60 type  1   force =     0.00000000    0.00053570   -0.00469124
     atom   61 type  1   force =     0.00000006    0.00159316    0.00946927
     atom   62 type  1   force =     0.00000000   -0.00334817    0.01638523
     atom   63 type  1   force =     0.00000000   -0.00334821    0.01638557
     atom   64 type  1   force =     0.00000000   -0.00334812    0.01638538
     atom   65 type  1   force =     0.00000000   -0.00334811    0.01638569
     atom   66 type  1   force =     0.00000015    0.00159305    0.00946933
     atom   67 type  1   force =    -0.00000006    0.00159316    0.00946927
     atom   68 type  1   force =    -0.00000015    0.00159305    0.00946933
     atom   69 type  1   force =     0.00000006    0.00164648   -0.02685010
     atom   70 type  1   force =     0.00000000    0.00164631   -0.02685015
     atom   71 type  1   force =    -0.00000006    0.00164648   -0.02685010
     atom   72 type  1   force =    -0.00000000    0.00164631   -0.02685015

     Total force =     0.095245     Total SCF correction =     0.005435
 
     init_run     :    123.97s CPU     18.08s WALL (       1 calls)
     electrons    :   6939.75s CPU    950.53s WALL (       1 calls)
     forces       :     45.10s CPU      5.76s WALL (       1 calls)

     Called by init_run:
     wfcinit      :    119.03s CPU     16.57s WALL (       1 calls)
     potinit      :      1.78s CPU      0.26s WALL (       1 calls)
     hinit0       :      1.73s CPU      0.57s WALL (       1 calls)

     Called by electrons:
     c_bands      :   6215.05s CPU    854.60s WALL (      22 calls)
     sum_band     :    673.34s CPU     88.55s WALL (      22 calls)
     v_of_rho     :     22.72s CPU      3.05s WALL (      22 calls)
     newd         :     19.79s CPU      3.19s WALL (      22 calls)
     mix_rho      :      6.79s CPU      0.92s WALL (      22 calls)

     Called by c_bands:
     init_us_2    :     32.62s CPU      4.21s WALL (     414 calls)
     cegterg      :   5879.56s CPU    760.68s WALL (     198 calls)

     Called by *egterg:
     cdiaghg      :   1580.42s CPU    202.01s WALL (    1259 calls)
     h_psi        :   2532.20s CPU    328.18s WALL (    1277 calls)
     s_psi        :    363.29s CPU     45.70s WALL (    1277 calls)
     g_psi        :      7.68s CPU      0.97s WALL (    1070 calls)

     Called by h_psi:
     h_psi:calbec :    388.34s CPU     48.94s WALL (    1277 calls)
     vloc_psi     :   1755.53s CPU    229.00s WALL (    1277 calls)
     add_vuspsi   :    370.74s CPU     46.72s WALL (    1277 calls)

     General routines
     calbec       :    572.90s CPU     72.16s WALL (    1511 calls)
     fft          :      8.67s CPU      1.22s WALL (     296 calls)
     ffts         :      0.75s CPU      0.11s WALL (      44 calls)
     fftw         :   2027.22s CPU    263.66s WALL (  513616 calls)
     interpolate  :      1.40s CPU      0.19s WALL (      22 calls)
 
     Parallel routines
     fft_scatt_xy :    203.72s CPU     25.81s WALL (  513956 calls)
     fft_scatt_yz :    961.05s CPU    130.66s WALL (  513956 calls)
 
     PWSCF        :      1h58m CPU  16m14.50s WALL

 
   This run was terminated on:   5:38: 4   8Sep2021            

=------------------------------------------------------------------------------=
   JOB DONE.
=------------------------------------------------------------------------------=
