
     Program PWSCF v.6.6 starts on  8Sep2021 at  4:13:23 

     This program is part of the open-source Quantum ESPRESSO suite
     for quantum simulation of materials; please cite
         "P. Giannozzi et al., J. Phys.:Condens. Matter 21 395502 (2009);
         "P. Giannozzi et al., J. Phys.:Condens. Matter 29 465901 (2017);
          URL http://www.quantum-espresso.org", 
     in publications or presentations arising from this work. More details at
     http://www.quantum-espresso.org/quote

     Parallel version (MPI & OpenMP), running on     192 processor cores
     Number of MPI processes:                24
     Threads/MPI process:                     8

     MPI processes distributed on     4 nodes
     K-points division:     npool     =       2
     R & G space division:  proc/nbgrp/npool/nimage =      12
     Fft bands division:     nmany     =       1
     Reading input from ../inputs/input_ausurf_36

     Current dimensions of program PWSCF are:
     Max number of different atomic species (ntypx) = 10
     Max number of k-points (npk) =  40000
     Max angular momentum in pseudopotentials (lmaxx) =  3

     Subspace diagonalization in iterative solution of the eigenvalue problem:
     one sub-group per band group will be used
     ELPA distributed-memory algorithm (size of sub-group:  3*  3 procs)

     Found symmetry operation: I + ( -0.5000  0.0000  0.0000)
     This is a supercell, fractional translations are disabled
 
     Parallelization info
     --------------------
     sticks:   dense  smooth     PW     G-vecs:    dense   smooth      PW
     Min         249     113     31                59375    18339    2729
     Max         250     114     32                59396    18366    2758
     Sum        2995    1367    379               712611   220327   32927
 

     Title: 
      Ausurf                                                                    


     bravais-lattice index     =            8
     lattice parameter (alat)  =      11.1494  a.u.
     unit-cell volume          =    6444.4936 (a.u.)^3
     number of atoms/cell      =           36
     number of atomic types    =            1
     number of electrons       =       396.00
     number of Kohn-Sham states=          238
     kinetic-energy cutoff     =      40.0000  Ry
     charge density cutoff     =     350.0000  Ry
     convergence threshold     =      1.0E-06
     mixing beta               =       0.7000
     number of iterations used =            8  TF        mixing
     Exchange-correlation=  SLA  PW   PBE  PBE
                           (   1   4   3   4   0   0   0)

     celldm(1)=  11.149384  celldm(2)=   0.866025  celldm(3)=   5.369150
     celldm(4)=   0.000000  celldm(5)=   0.000000  celldm(6)=   0.000000

     crystal axes: (cart. coord. in units of alat)
               a(1) = (   1.000000   0.000000   0.000000 )  
               a(2) = (   0.000000   0.866025   0.000000 )  
               a(3) = (   0.000000   0.000000   5.369150 )  

     reciprocal axes: (cart. coord. in units 2 pi/alat)
               b(1) = (  1.000000  0.000000  0.000000 )  
               b(2) = (  0.000000  1.154701  0.000000 )  
               b(3) = (  0.000000  0.000000  0.186249 )  


     PseudoPot. # 1 for Au read from file:
     /marconi/home/userexternal/czeni000/dft_src/pseudo/Au.pbe-nd-van.UPF
     MD5 check sum: deb5c07af10777505a79e28f5b4b4115
     Pseudo is Ultrasoft + core correction, Zval = 11.0
     Generated by new atomic code, or converted to UPF format
     Using radial grid of  985 points,  3 beta functions with: 
                l(1) =   1
                l(2) =   2
                l(3) =   2
     Q(r) pseudized with  8 coefficients,  rinner =    1.100   1.100   1.100
                                                       1.100   1.100

     atomic species   valence    mass     pseudopotential
        Au            11.00   196.96000     Au( 1.00)

      2 Sym. Ops. (no inversion) found



   Cartesian axes

     site n.     atom                  positions (alat units)
         1           Au  tau(   1) = (   0.0000000   0.0000000   0.0000000  )
         2           Au  tau(   2) = (   0.5000000   0.0000000   0.0000000  )
         3           Au  tau(   3) = (   0.2500000   0.1443376   0.4082483  )
         4           Au  tau(   4) = (   0.7500000   0.1443376   0.4082483  )
         5           Au  tau(   5) = (   0.5000000   0.5773503   0.4082483  )
         6           Au  tau(   6) = (   1.0000000   0.5773503   0.4082483  )
         7           Au  tau(   7) = (   0.5000000   0.2886751   0.8164966  )
         8           Au  tau(   8) = (   1.0000000   0.2886751   0.8164966  )
         9           Au  tau(   9) = (   0.2500000   0.7216878   0.8164966  )
        10           Au  tau(  10) = (   0.7500000   0.7216878   0.8164966  )
        11           Au  tau(  11) = (   0.0000000   0.0000000   1.2247449  )
        12           Au  tau(  12) = (   0.5000000   0.0000000   1.2247449  )
        13           Au  tau(  13) = (   0.2500000   0.4330127   1.2247449  )
        14           Au  tau(  14) = (   0.7500000   0.4330127   1.2247449  )
        15           Au  tau(  15) = (   1.0000000   0.5773503   1.6329932  )
        16           Au  tau(  16) = (   0.2500000   0.1443376   1.6329932  )
        17           Au  tau(  17) = (   0.7500000   0.1443376   1.6329932  )
        18           Au  tau(  18) = (   0.5000000   0.5773503   1.6329932  )
        19           Au  tau(  19) = (   0.5000000   0.2886751   2.0412415  )
        20           Au  tau(  20) = (   1.0000000   0.2886751   2.0412415  )
        21           Au  tau(  21) = (   0.2500000   0.7216878   2.0412415  )
        22           Au  tau(  22) = (   0.7500000   0.7216878   2.0412415  )
        23           Au  tau(  23) = (   0.0000000   0.0000000   2.4494897  )
        24           Au  tau(  24) = (   0.5000000   0.0000000   2.4494897  )
        25           Au  tau(  25) = (   0.2500000   0.4330127   2.4494897  )
        26           Au  tau(  26) = (   0.7500000   0.4330127   2.4494897  )
        27           Au  tau(  27) = (   0.2500000   0.1443376   2.8577380  )
        28           Au  tau(  28) = (   0.7500000   0.1443376   2.8577380  )
        29           Au  tau(  29) = (   0.5000000   0.5773503   2.8577380  )
        30           Au  tau(  30) = (   1.0000000   0.5773503   2.8577380  )
        31           Au  tau(  31) = (   0.5000000   0.2886751   3.2659863  )
        32           Au  tau(  32) = (   1.0000000   0.2886751   3.2659863  )
        33           Au  tau(  33) = (   0.2500000   0.7216878   3.2659863  )
        34           Au  tau(  34) = (   0.7500000   0.7216878   3.2659863  )
        35           Au  tau(  35) = (   0.2500000   0.4330127   3.6742346  )
        36           Au  tau(  36) = (   0.7500000   0.4330127   3.6742346  )

     number of k points=    36  Marzari-Vanderbilt smearing, width (Ry)=  0.0500
                       cart. coord. in units 2pi/alat
        k(    1) = (   0.0416667   0.0481125   0.0000000), wk =   0.0555556
        k(    2) = (   0.0416667   0.1443376   0.0000000), wk =   0.0555556
        k(    3) = (   0.0416667   0.2405626   0.0000000), wk =   0.0555556
        k(    4) = (   0.0416667   0.3367877   0.0000000), wk =   0.0555556
        k(    5) = (   0.0416667   0.4330127   0.0000000), wk =   0.0555556
        k(    6) = (   0.0416667   0.5292377   0.0000000), wk =   0.0555556
        k(    7) = (   0.1250000   0.0481125   0.0000000), wk =   0.0555556
        k(    8) = (   0.1250000   0.1443376   0.0000000), wk =   0.0555556
        k(    9) = (   0.1250000   0.2405626   0.0000000), wk =   0.0555556
        k(   10) = (   0.1250000   0.3367877   0.0000000), wk =   0.0555556
        k(   11) = (   0.1250000   0.4330127   0.0000000), wk =   0.0555556
        k(   12) = (   0.1250000   0.5292377   0.0000000), wk =   0.0555556
        k(   13) = (   0.2083333   0.0481125   0.0000000), wk =   0.0555556
        k(   14) = (   0.2083333   0.1443376   0.0000000), wk =   0.0555556
        k(   15) = (   0.2083333   0.2405626   0.0000000), wk =   0.0555556
        k(   16) = (   0.2083333   0.3367877   0.0000000), wk =   0.0555556
        k(   17) = (   0.2083333   0.4330127   0.0000000), wk =   0.0555556
        k(   18) = (   0.2083333   0.5292377   0.0000000), wk =   0.0555556
        k(   19) = (   0.2916667   0.0481125   0.0000000), wk =   0.0555556
        k(   20) = (   0.2916667   0.1443376   0.0000000), wk =   0.0555556
        k(   21) = (   0.2916667   0.2405626   0.0000000), wk =   0.0555556
        k(   22) = (   0.2916667   0.3367877   0.0000000), wk =   0.0555556
        k(   23) = (   0.2916667   0.4330127   0.0000000), wk =   0.0555556
        k(   24) = (   0.2916667   0.5292377   0.0000000), wk =   0.0555556
        k(   25) = (   0.3750000   0.0481125   0.0000000), wk =   0.0555556
        k(   26) = (   0.3750000   0.1443376   0.0000000), wk =   0.0555556
        k(   27) = (   0.3750000   0.2405626   0.0000000), wk =   0.0555556
        k(   28) = (   0.3750000   0.3367877   0.0000000), wk =   0.0555556
        k(   29) = (   0.3750000   0.4330127   0.0000000), wk =   0.0555556
        k(   30) = (   0.3750000   0.5292377   0.0000000), wk =   0.0555556
        k(   31) = (   0.4583333   0.0481125   0.0000000), wk =   0.0555556
        k(   32) = (   0.4583333   0.1443376   0.0000000), wk =   0.0555556
        k(   33) = (   0.4583333   0.2405626   0.0000000), wk =   0.0555556
        k(   34) = (   0.4583333   0.3367877   0.0000000), wk =   0.0555556
        k(   35) = (   0.4583333   0.4330127   0.0000000), wk =   0.0555556
        k(   36) = (   0.4583333   0.5292377   0.0000000), wk =   0.0555556

     Dense  grid:   712611 G-vectors     FFT dimensions: (  72,  60, 360)

     Smooth grid:   220327 G-vectors     FFT dimensions: (  45,  40, 243)

     Estimated max dynamical RAM per process >     304.94 MB

     Estimated total dynamical RAM >       7.15 GB

     Initial potential from superposition of free atoms

     starting charge  395.58197, renormalised to  396.00000

     negative rho (up, down):  9.582E-01 0.000E+00
     Starting wfcs are  324 randomized atomic wfcs

     total cpu time spent up to now is        6.6 secs

     Self-consistent Calculation

     iteration #  1     ecut=    40.00 Ry     beta= 0.70
     Davidson diagonalization with overlap
     ethr =  1.00E-02,  avg # of iterations =  2.6

     Threshold (ethr) on eigenvalues was too large:
     Diagonalizing with lowered threshold

     Davidson diagonalization with overlap
     ethr =  3.35E-04,  avg # of iterations =  2.9

     negative rho (up, down):  9.101E-01 0.000E+00

     total cpu time spent up to now is       31.6 secs

     total energy              =   -3673.13663775 Ry
     estimated scf accuracy    <       1.57447142 Ry

     iteration #  2     ecut=    40.00 Ry     beta= 0.70
     Davidson diagonalization with overlap
     ethr =  3.98E-04,  avg # of iterations =  1.1

     negative rho (up, down):  9.629E-01 0.000E+00

     total cpu time spent up to now is       41.4 secs

     total energy              =   -3673.20635863 Ry
     estimated scf accuracy    <       0.70305562 Ry

     iteration #  3     ecut=    40.00 Ry     beta= 0.70
     Davidson diagonalization with overlap
     ethr =  1.78E-04,  avg # of iterations =  3.2

     negative rho (up, down):  1.015E+00 0.000E+00

     total cpu time spent up to now is       53.5 secs

     total energy              =   -3673.20196953 Ry
     estimated scf accuracy    <       0.41110215 Ry

     iteration #  4     ecut=    40.00 Ry     beta= 0.70
     Davidson diagonalization with overlap
     ethr =  1.04E-04,  avg # of iterations =  4.8

     negative rho (up, down):  1.013E+00 0.000E+00

     total cpu time spent up to now is       66.9 secs

     total energy              =   -3673.19539361 Ry
     estimated scf accuracy    <       0.20240404 Ry

     iteration #  5     ecut=    40.00 Ry     beta= 0.70
     Davidson diagonalization with overlap
     ethr =  5.11E-05,  avg # of iterations =  7.9

     negative rho (up, down):  9.871E-01 0.000E+00

     total cpu time spent up to now is       82.6 secs

     total energy              =   -3673.19239838 Ry
     estimated scf accuracy    <       0.12415900 Ry

     iteration #  6     ecut=    40.00 Ry     beta= 0.70
     Davidson diagonalization with overlap
     ethr =  3.14E-05,  avg # of iterations =  7.8

     negative rho (up, down):  9.885E-01 0.000E+00

     total cpu time spent up to now is       98.7 secs

     total energy              =   -3673.18888753 Ry
     estimated scf accuracy    <       0.11805597 Ry

     iteration #  7     ecut=    40.00 Ry     beta= 0.70
     Davidson diagonalization with overlap
     ethr =  2.98E-05,  avg # of iterations =  2.4

     negative rho (up, down):  9.935E-01 0.000E+00

     total cpu time spent up to now is      110.2 secs

     total energy              =   -3673.18423840 Ry
     estimated scf accuracy    <       0.12027971 Ry

     iteration #  8     ecut=    40.00 Ry     beta= 0.70
     Davidson diagonalization with overlap
     ethr =  2.98E-05,  avg # of iterations =  3.4

     negative rho (up, down):  1.009E+00 0.000E+00

     total cpu time spent up to now is      122.4 secs

     total energy              =   -3673.17698277 Ry
     estimated scf accuracy    <       0.07495784 Ry

     iteration #  9     ecut=    40.00 Ry     beta= 0.70
     Davidson diagonalization with overlap
     ethr =  1.89E-05,  avg # of iterations = 10.7

     negative rho (up, down):  1.005E+00 0.000E+00

     total cpu time spent up to now is      143.8 secs

     total energy              =   -3673.18601297 Ry
     estimated scf accuracy    <       0.10033200 Ry

     iteration # 10     ecut=    40.00 Ry     beta= 0.70
     Davidson diagonalization with overlap
     ethr =  1.89E-05,  avg # of iterations =  1.0

     negative rho (up, down):  1.019E+00 0.000E+00

     total cpu time spent up to now is      153.4 secs

     total energy              =   -3673.18080812 Ry
     estimated scf accuracy    <       0.06349731 Ry

     iteration # 11     ecut=    40.00 Ry     beta= 0.70
     Davidson diagonalization with overlap
     ethr =  1.60E-05,  avg # of iterations =  1.1

     negative rho (up, down):  1.023E+00 0.000E+00

     total cpu time spent up to now is      163.2 secs

     total energy              =   -3673.18491379 Ry
     estimated scf accuracy    <       0.03186016 Ry

     iteration # 12     ecut=    40.00 Ry     beta= 0.70
     Davidson diagonalization with overlap
     ethr =  8.05E-06,  avg # of iterations =  2.7

     negative rho (up, down):  1.034E+00 0.000E+00

     total cpu time spent up to now is      175.0 secs

     total energy              =   -3673.17604990 Ry
     estimated scf accuracy    <       0.07053907 Ry

     iteration # 13     ecut=    40.00 Ry     beta= 0.70
     Davidson diagonalization with overlap
     ethr =  8.05E-06,  avg # of iterations =  9.0

     negative rho (up, down):  1.013E+00 0.000E+00

     total cpu time spent up to now is      192.9 secs

     total energy              =   -3673.17730793 Ry
     estimated scf accuracy    <       0.00637295 Ry

     iteration # 14     ecut=    40.00 Ry     beta= 0.70
     Davidson diagonalization with overlap
     ethr =  1.61E-06,  avg # of iterations =  9.6

     negative rho (up, down):  1.004E+00 0.000E+00

     total cpu time spent up to now is      220.5 secs

     total energy              =   -3673.17896719 Ry
     estimated scf accuracy    <       0.01758423 Ry

     iteration # 15     ecut=    40.00 Ry     beta= 0.70
     Davidson diagonalization with overlap
     ethr =  1.61E-06,  avg # of iterations =  2.1

     negative rho (up, down):  9.935E-01 0.000E+00

     total cpu time spent up to now is      231.6 secs

     total energy              =   -3673.17771538 Ry
     estimated scf accuracy    <       0.00796847 Ry

     iteration # 16     ecut=    40.00 Ry     beta= 0.70
     Davidson diagonalization with overlap
     ethr =  1.61E-06,  avg # of iterations =  7.6

     negative rho (up, down):  9.847E-01 0.000E+00

     total cpu time spent up to now is      249.2 secs

     total energy              =   -3673.17831297 Ry
     estimated scf accuracy    <       0.00020458 Ry

     iteration # 17     ecut=    40.00 Ry     beta= 0.70
     Davidson diagonalization with overlap
     ethr =  5.17E-08,  avg # of iterations =  7.9

     negative rho (up, down):  9.800E-01 0.000E+00

     total cpu time spent up to now is      267.9 secs

     total energy              =   -3673.17830121 Ry
     estimated scf accuracy    <       0.00008509 Ry

     iteration # 18     ecut=    40.00 Ry     beta= 0.70
     Davidson diagonalization with overlap
     ethr =  2.15E-08,  avg # of iterations =  8.9

     negative rho (up, down):  9.789E-01 0.000E+00

     total cpu time spent up to now is      284.8 secs

     total energy              =   -3673.17833018 Ry
     estimated scf accuracy    <       0.00001240 Ry

     iteration # 19     ecut=    40.00 Ry     beta= 0.70
     Davidson diagonalization with overlap
     ethr =  3.13E-09,  avg # of iterations =  4.4

     negative rho (up, down):  9.786E-01 0.000E+00

     total cpu time spent up to now is      300.3 secs

     total energy              =   -3673.17834483 Ry
     estimated scf accuracy    <       0.00000165 Ry

     iteration # 20     ecut=    40.00 Ry     beta= 0.70
     Davidson diagonalization with overlap
     c_bands:  1 eigenvalues not converged
     ethr =  4.15E-10,  avg # of iterations =  4.6

     negative rho (up, down):  9.787E-01 0.000E+00

     total cpu time spent up to now is      317.1 secs

     total energy              =   -3673.17834885 Ry
     estimated scf accuracy    <       0.00000143 Ry

     iteration # 21     ecut=    40.00 Ry     beta= 0.70
     Davidson diagonalization with overlap
     ethr =  3.60E-10,  avg # of iterations =  3.4

     negative rho (up, down):  9.786E-01 0.000E+00

     total cpu time spent up to now is      329.4 secs

     End of self-consistent calculation

          k = 0.0417 0.0481 0.0000 ( 27553 PWs)   bands (ev):

    -0.8129  -0.4712   0.0255   0.6015   1.1251   1.4435   1.5649   1.5684
     1.6144   1.8507   1.8642   2.0337   2.1255   2.1636   2.2293   2.2807
     2.3230   2.3503   2.3812   2.3917   2.4408   2.4759   2.4836   2.5152
     2.5463   2.5802   2.6416   2.6672   2.7238   2.7591   2.7907   2.8247
     2.8574   2.9404   2.9795   3.0561   3.0815   3.1172   3.1761   3.1947
     3.2140   3.2337   3.2611   3.3217   3.3318   3.3436   3.3607   3.3758
     3.4825   3.5090   3.5480   3.5628   3.5670   3.5868   3.6076   3.6908
     3.7320   3.7327   3.7657   3.7744   3.7940   3.8281   3.8525   3.8936
     3.8953   3.9021   3.9073   3.9194   3.9345   3.9389   3.9551   3.9610
     3.9636   3.9878   3.9940   4.0119   4.0425   4.0732   4.0802   4.0953
     4.0993   4.1179   4.1399   4.1646   4.1655   4.1743   4.1755   4.2067
     4.3002   4.3058   4.3144   4.3184   4.3329   4.3480   4.3672   4.3704
     4.3827   4.3944   4.5096   4.5127   4.5189   4.5249   4.6992   4.7082
     4.7251   4.7466   4.7643   4.7727   4.8820   4.8919   4.9029   4.9914
     5.0353   5.0603   5.1115   5.1243   5.1512   5.1908   5.2013   5.2236
     5.2291   5.2363   5.2704   5.2755   5.2829   5.3188   5.3321   5.3344
     5.3403   5.3472   5.4062   5.4279   5.4312   5.4608   5.4887   5.5163
     5.5452   5.5547   5.6410   5.6477   5.6785   5.6998   5.7301   5.7906
     5.8305   5.8597   5.8970   5.9250   5.9598   5.9962   6.0131   6.0976
     6.1178   6.1335   6.1658   6.1961   6.2062   6.2194   6.2346   6.2528
     6.3037   6.3278   6.3461   6.3609   6.3716   6.3777   6.3922   6.3980
     6.3989   6.4318   6.4346   6.4386   6.4651   6.4863   6.5341   6.5459
     6.5485   6.5746   6.5955   6.5990   6.6009   6.6084   6.6330   6.6380
     6.7563   6.7603   6.9121   6.9125   7.0798   7.6699   7.7970   7.8521
     8.0476   8.2771   8.3596   8.4533   8.4654   8.7138   8.7920   8.9272
     9.0402   9.0556   9.2727   9.2776   9.2965   9.6611   9.7597   9.9042
     9.9108   9.9943  10.5292  10.6509  11.1450  11.2641  11.3374  11.3823
    11.4666  11.8210  11.8825  12.0478  12.0967  12.3379  12.6160  12.6197
    12.6452  12.7872  12.8748  13.2843  13.3837  13.4641  13.4915  13.7254
    13.8096  13.8831  13.9602  13.9953  13.9999  14.0079

          k = 0.0417 0.1443 0.0000 ( 27502 PWs)   bands (ev):

    -0.7120  -0.3720   0.1227   0.6973   1.2202   1.5339   1.6054   1.6505
     1.6609   1.8613   1.8866   2.0574   2.0993   2.1520   2.1679   2.2133
     2.2573   2.2770   2.2877   2.3123   2.3612   2.4145   2.4686   2.4947
     2.4995   2.5195   2.5879   2.6430   2.6926   2.7019   2.7022   2.7114
     2.7433   2.8196   2.8705   2.8925   2.9247   3.0052   3.0411   3.0826
     3.1303   3.1627   3.2319   3.2376   3.2679   3.3397   3.3500   3.3744
     3.5018   3.5242   3.5494   3.5559   3.5887   3.6159   3.6855   3.6859
     3.7021   3.7669   3.7707   3.7915   3.8466   3.8507   3.8648   3.9112
     3.9126   3.9279   3.9387   3.9444   3.9764   3.9822   4.0007   4.0219
     4.0251   4.0561   4.0669   4.0746   4.1084   4.1223   4.1463   4.1738
     4.1779   4.1874   4.1946   4.2220   4.2261   4.2318   4.2716   4.2825
     4.3077   4.3229   4.3490   4.3603   4.3985   4.4231   4.4239   4.4610
     4.4932   4.5053   4.5335   4.5395   4.5776   4.5984   4.6305   4.6703
     4.6892   4.7169   4.8046   4.8209   4.8959   4.9466   4.9750   4.9992
     5.0476   5.0839   5.0934   5.0983   5.1168   5.1295   5.2386   5.2516
     5.2545   5.2574   5.2795   5.3460   5.3470   5.3597   5.3709   5.4097
     5.4371   5.4540   5.4707   5.4978   5.5075   5.5263   5.5378   5.5499
     5.5815   5.6043   5.6128   5.6510   5.6710   5.7143   5.7284   5.7739
     5.7898   5.8585   5.8639   5.9139   5.9477   5.9822   5.9840   6.0198
     6.1241   6.1251   6.1464   6.1501   6.2105   6.2145   6.2232   6.2278
     6.2504   6.2756   6.3144   6.3144   6.3224   6.3341   6.3623   6.3837
     6.3893   6.3930   6.4002   6.4540   6.4583   6.4652   6.5048   6.5418
     6.5431   6.5489   6.5643   6.5967   6.5993   6.6019   6.6022   6.7171
     6.7442   6.7962   6.9103   6.9105   7.1489   7.4629   7.5677   7.6596
     7.7876   7.7931   8.0369   8.0831   8.2943   8.4392   8.4792   8.7582
     8.7940   9.0337   9.1521   9.2660   9.4274   9.7074   9.7676   9.9047
    10.5417  10.6516  10.6634  11.0146  11.2603  11.3007  11.3795  11.6090
    11.6928  11.7722  11.8433  12.0152  12.0883  12.2302  12.2953  12.4475
    12.5529  12.7282  12.8304  12.9239  12.9505  13.1168  13.2777  13.4307
    13.4391  13.6182  13.6487  13.7156  13.8985  14.0519

          k = 0.0417 0.2406 0.0000 ( 27513 PWs)   bands (ev):

    -0.5138  -0.1778   0.3117   0.8821   1.4019   1.5835   1.7091   1.8040
     1.8168   1.8557   1.9104   1.9477   2.0096   2.0846   2.1273   2.1442
     2.1467   2.1617   2.2418   2.2478   2.3028   2.3383   2.3702   2.4366
     2.4397   2.4516   2.4744   2.5357   2.5380   2.5681   2.5944   2.5987
     2.6170   2.6638   2.7718   2.7725   2.8062   2.8490   2.8755   2.9229
     2.9564   3.1331   3.1630   3.1811   3.2790   3.3274   3.3540   3.3779
     3.5320   3.5437   3.5538   3.5935   3.6248   3.6298   3.6924   3.7201
     3.7350   3.7437   3.7593   3.7852   3.8267   3.8571   3.8683   3.9196
     3.9235   3.9487   3.9800   4.0164   4.0194   4.0534   4.0696   4.0710
     4.1023   4.1097   4.1197   4.1394   4.1500   4.1832   4.1936   4.2022
     4.2051   4.2182   4.2369   4.2543   4.3005   4.3061   4.3147   4.3395
     4.3505   4.3691   4.3996   4.4254   4.4666   4.4854   4.4906   4.4990
     4.5355   4.5360   4.5787   4.5862   4.7256   4.7307   4.7852   4.8102
     4.8176   4.8260   4.8496   4.8593   4.9066   5.0021   5.0165   5.0248
     5.0342   5.0372   5.1093   5.1223   5.1804   5.1999   5.2311   5.2502
     5.2741   5.2767   5.2971   5.3642   5.3672   5.3762   5.3766   5.4090
     5.4868   5.5333   5.5423   5.5469   5.5777   5.6201   5.6319   5.6405
     5.6744   5.7080   5.7307   5.7333   5.7667   5.7779   5.8000   5.8289
     5.8341   5.8437   5.8571   5.9034   5.9908   6.0094   6.0438   6.0535
     6.0718   6.0775   6.0906   6.1245   6.1528   6.1687   6.1841   6.1993
     6.2058   6.2252   6.2258   6.2350   6.2656   6.2731   6.2791   6.2827
     6.3070   6.3588   6.3701   6.3773   6.4185   6.4453   6.4496   6.4742
     6.5159   6.5466   6.5483   6.5849   6.5916   6.5990   6.5995   6.6625
     6.7244   6.7392   6.8159   6.9052   6.9059   6.9117   7.0666   7.4070
     7.6393   7.8003   7.8661   8.0289   8.1972   8.3294   8.4199   8.5164
     8.8061   9.0219   9.1284   9.2504   9.3117   9.7010   9.7802   9.8687
    10.2499  10.5444  10.6433  11.0498  11.2180  11.2740  11.3419  11.4437
    11.6620  11.8062  11.9858  12.0115  12.1032  12.1261  12.3037  12.3199
    12.5246  12.5923  12.6533  12.7650  12.8203  12.9359  13.0711  13.0961
    13.1679  13.4464  13.5272  13.6622  13.8264  14.1018

          k = 0.0417 0.3368 0.0000 ( 27517 PWs)   bands (ev):

    -0.2261   0.1021   0.5802   1.1388   1.5058   1.6432   1.7517   1.7548
     1.8301   1.9393   1.9732   1.9999   2.0105   2.0134   2.0286   2.0428
     2.0658   2.0743   2.1689   2.1963   2.2341   2.2735   2.2887   2.3081
     2.3439   2.3808   2.3833   2.4081   2.4495   2.4563   2.4767   2.5535
     2.5905   2.6140   2.6591   2.6731   2.6933   2.7013   2.7855   2.8068
     2.8759   3.1221   3.1401   3.1992   3.2741   3.3125   3.3791   3.4049
     3.4214   3.5151   3.5763   3.5856   3.5908   3.6263   3.6448   3.6979
     3.7044   3.7595   3.7715   3.7877   3.8467   3.8555   3.8677   3.9409
     3.9530   3.9710   3.9758   4.0154   4.0418   4.0579   4.0764   4.0790
     4.1318   4.1412   4.1549   4.1625   4.1694   4.1871   4.2004   4.2560
     4.2740   4.2746   4.2887   4.2967   4.3225   4.3535   4.3688   4.3709
     4.3815   4.3938   4.4711   4.4782   4.4956   4.5050   4.5342   4.5559
     4.5744   4.6619   4.6803   4.6918   4.7144   4.7188   4.8013   4.8150
     4.8240   4.8716   4.9011   4.9252   4.9585   4.9711   4.9820   5.0065
     5.0841   5.0944   5.1293   5.1732   5.2249   5.2389   5.2409   5.2589
     5.2857   5.3265   5.3369   5.3442   5.3731   5.3876   5.4028   5.4034
     5.4729   5.5371   5.5821   5.5990   5.6075   5.6680   5.6966   5.7310
     5.7483   5.7697   5.8373   5.8538   5.8541   5.8574   5.9006   5.9107
     5.9489   5.9495   5.9587   5.9688   6.0131   6.0141   6.0279   6.0360
     6.0478   6.0573   6.0735   6.0765   6.0911   6.1010   6.1299   6.1448
     6.1762   6.1929   6.2093   6.2480   6.2573   6.2636   6.2647   6.2673
     6.2911   6.2930   6.3171   6.3337   6.3362   6.3496   6.3648   6.3777
     6.4243   6.4251   6.4423   6.5472   6.5507   6.5842   6.5891   6.6019
     6.6042   6.7164   6.7279   6.8257   6.8948   6.8960   6.8973   7.4966
     7.6143   7.7171   7.8510   8.0663   8.2647   8.3615   8.4214   8.5961
     8.6835   8.8540   9.0090   9.2262   9.3896   9.7302   9.7557   9.7876
    10.0743  10.2529  10.4661  10.5918  10.7564  10.7871  11.1348  11.1945
    11.2267  11.3897  11.4823  11.6595  11.7791  11.8562  12.1127  12.2554
    12.3470  12.4089  12.6219  12.7046  12.8497  13.2028  13.2840  13.4616
    13.4632  13.6556  13.6885  13.8961  13.9581  14.1118

          k = 0.0417 0.4330 0.0000 ( 27525 PWs)   bands (ev):

     0.1367   0.4501   0.9046   1.3073   1.4288   1.5450   1.6498   1.6966
     1.7919   1.8972   1.9035   1.9193   1.9251   1.9444   2.0365   2.0854
     2.1139   2.1709   2.1738   2.1760   2.1997   2.2057   2.2504   2.2863
     2.2884   2.3237   2.3384   2.3594   2.3626   2.4228   2.4860   2.5087
     2.5181   2.5547   2.5682   2.6489   2.6954   2.7049   2.7231   2.8035
     3.0105   3.0889   3.1043   3.1417   3.2486   3.2913   3.3538   3.4096
     3.4395   3.4519   3.4837   3.5156   3.5843   3.6151   3.6200   3.6486
     3.6779   3.7081   3.7496   3.7648   3.7863   3.8922   3.9038   3.9095
     3.9451   3.9480   3.9655   3.9776   4.0219   4.0628   4.0734   4.0850
     4.1158   4.1398   4.1479   4.1812   4.1914   4.1974   4.2188   4.2238
     4.2686   4.3033   4.3271   4.3446   4.3506   4.3783   4.4045   4.4189
     4.4320   4.4575   4.4623   4.4935   4.5488   4.5569   4.5801   4.5837
     4.5906   4.6125   4.6647   4.7064   4.7477   4.7951   4.8262   4.8332
     4.8597   4.8662   4.9184   4.9264   4.9464   4.9663   4.9818   4.9849
     5.0120   5.0272   5.0519   5.1355   5.1717   5.1821   5.2011   5.2201
     5.3212   5.3467   5.3782   5.3927   5.3967   5.4288   5.4490   5.4805
     5.4941   5.5094   5.5536   5.5748   5.5792   5.5885   5.6072   5.6432
     5.6677   5.7295   5.7675   5.7913   5.7996   5.8344   5.8779   5.8975
     5.9034   5.9070   5.9432   5.9721   6.0235   6.0297   6.0377   6.0593
     6.1087   6.1183   6.1268   6.1563   6.1589   6.1740   6.1936   6.2342
     6.2360   6.2539   6.2715   6.2758   6.2938   6.3002   6.3010   6.3209
     6.3272   6.3572   6.3664   6.3759   6.3907   6.4264   6.4354   6.4492
     6.4641   6.4808   6.4871   6.5640   6.5678   6.5862   6.5878   6.6266
     6.6271   6.7179   6.7248   6.8300   6.8743   6.8771   6.9659   7.4846
     7.6163   7.7837   7.9866   8.2064   8.2357   8.2999   8.5082   8.6560
     8.6806   8.9603   9.0368   9.1736   9.2183   9.4830   9.7080   9.7104
     9.7773   9.9556  10.0862  10.2302  10.3584  10.6336  10.6522  10.9774
    11.0272  11.1340  11.2089  11.3339  11.4414  11.5257  11.8430  12.0922
    12.0991  12.4259  12.5340  12.5786  12.6666  13.0058  13.3259  13.4001
    13.5568  13.6329  13.7995  14.0116  14.1026  14.2506

          k = 0.0417 0.5292 0.0000 ( 27573 PWs)   bands (ev):

     0.5492   0.8363   0.9651   1.2160   1.2464   1.5574   1.6037   1.6195
     1.7229   1.8477   1.8522   1.8547   1.8683   1.9218   2.0303   2.0407
     2.1221   2.1228   2.1516   2.1521   2.1715   2.2258   2.2383   2.2442
     2.3148   2.3181   2.3338   2.4116   2.4166   2.4301   2.4887   2.4953
     2.5245   2.6022   2.6234   2.6688   2.6847   2.7341   2.7690   2.9327
     2.9613   3.0695   3.0835   3.1480   3.1696   3.2908   3.3243   3.3694
     3.4219   3.4495   3.4593   3.4758   3.5120   3.6019   3.6211   3.6469
     3.6482   3.6595   3.6847   3.7789   3.7921   3.8015   3.8650   3.8698
     3.8698   3.9260   3.9496   3.9554   3.9801   4.0262   4.0868   4.1077
     4.1099   4.1337   4.1657   4.1832   4.1890   4.1906   4.2009   4.2186
     4.2379   4.2549   4.3219   4.3578   4.3807   4.4297   4.4314   4.4335
     4.4525   4.4660   4.4685   4.4916   4.5281   4.5335   4.5362   4.5973
     4.6326   4.6592   4.6926   4.7184   4.7515   4.8138   4.8721   4.8809
     4.8962   4.8990   4.9299   4.9595   4.9749   4.9810   4.9990   5.0116
     5.0294   5.0305   5.0821   5.1088   5.1280   5.1540   5.2160   5.2316
     5.2602   5.2615   5.2658   5.2962   5.3270   5.3510   5.3545   5.3751
     5.4199   5.4791   5.4961   5.5162   5.5399   5.5509   5.5724   5.6062
     5.6110   5.6971   5.7482   5.7565   5.7621   5.8117   5.8486   5.8653
     5.8928   5.9059   5.9770   5.9779   5.9953   6.0737   6.0941   6.1166
     6.1428   6.1748   6.1790   6.2013   6.2313   6.2339   6.2597   6.2670
     6.2938   6.3140   6.3361   6.3461   6.3477   6.3762   6.3788   6.3905
     6.3924   6.3956   6.4286   6.4325   6.4515   6.4562   6.4676   6.5117
     6.5126   6.5645   6.5714   6.5867   6.5873   6.6525   6.6704   6.6967
     6.6974   6.7187   6.7243   6.8334   6.8527   6.8762   6.9556   7.5265
     7.7396   7.7987   8.0376   8.1461   8.2409   8.5507   8.5855   8.7751
     8.7832   8.9467   8.9508   9.1041   9.1965   9.3531   9.4610   9.5885
     9.6441   9.7175   9.8305   9.9361   9.9978  10.0744  10.8567  10.8654
    10.9820  11.0636  11.0764  11.2293  11.2589  11.3281  11.7284  11.9530
    12.0585  12.3798  12.4489  12.5508  12.6089  12.8467  13.2441  13.3196
    13.6762  13.6817  13.8228  13.9532  13.9935  14.3686

          k = 0.1250 0.0481 0.0000 ( 27526 PWs)   bands (ev):

    -0.7371  -0.3966   0.0989   0.6743   1.1979   1.5129   1.6297   1.6348
     1.6768   1.9019   1.9259   2.0925   2.1251   2.1652   2.2302   2.2416
     2.2836   2.2969   2.3563   2.4142   2.4404   2.4725   2.5418   2.5507
     2.5817   2.6333   2.6410   2.6937   2.7517   2.7897   2.8323   2.8638
     2.9155   2.9236   3.0344   3.0607   3.0745   3.1540   3.1787   3.1960
     3.2221   3.2577   3.2957   3.2994   3.3324   3.3383   3.3721   3.3881
     3.4134   3.4855   3.5313   3.5526   3.5678   3.6022   3.6291   3.6971
     3.7176   3.7216   3.7228   3.7296   3.8087   3.8156   3.8415   3.8590
     3.8755   3.8837   3.8984   3.9143   3.9350   3.9545   3.9663   3.9766
     3.9818   3.9838   3.9898   4.0325   4.0583   4.0635   4.0746   4.0921
     4.1018   4.1140   4.1647   4.1683   4.1814   4.1891   4.1915   4.2079
     4.2222   4.2367   4.2925   4.3041   4.3121   4.3596   4.3651   4.3837
     4.3940   4.4134   4.4437   4.4978   4.5229   4.5524   4.6509   4.6736
     4.6753   4.7461   4.7704   4.8270   4.8741   4.9329   4.9341   4.9401
     4.9471   5.0630   5.0666   5.1000   5.1215   5.1345   5.1395   5.1515
     5.2108   5.2260   5.2500   5.2604   5.2670   5.3244   5.3272   5.3414
     5.3536   5.3621   5.3640   5.4058   5.4522   5.5062   5.5086   5.5254
     5.5504   5.5733   5.5808   5.5984   5.6382   5.7033   5.7297   5.7563
     5.8004   5.8471   5.8640   5.8695   5.8803   5.9528   5.9699   6.0319
     6.0791   6.0962   6.1333   6.1824   6.1833   6.2067   6.2207   6.2226
     6.2689   6.2868   6.2955   6.3087   6.3149   6.3451   6.3465   6.3561
     6.3676   6.3732   6.3753   6.3949   6.4470   6.4790   6.4812   6.4835
     6.5078   6.5280   6.5376   6.5450   6.5459   6.5765   6.6051   6.6683
     6.7012   6.7881   6.8417   6.8435   7.1245   7.2039   7.3952   7.3982
     7.7218   8.1390   8.2656   8.5428   8.8449   8.9424   8.9855   9.0976
     9.1659   9.1958   9.4413   9.4738   9.5982   9.7588   9.8114  10.0291
    10.1405  10.1419  10.5043  10.7968  11.1635  11.2335  11.3925  11.4102
    11.5349  11.7031  11.9238  11.9535  12.0719  12.0839  12.1802  12.5526
    12.7002  12.7424  12.8434  12.9774  13.2615  13.5813  13.5984  13.7980
    13.8115  14.0051  14.0483  14.1657  14.2974  14.3417

          k = 0.1250 0.1443 0.0000 ( 27539 PWs)   bands (ev):

    -0.6371  -0.2984   0.1948   0.7686   1.2912   1.6014   1.6684   1.7139
     1.7257   1.9239   1.9385   1.9573   2.1162   2.1647   2.2066   2.2217
     2.2609   2.3213   2.3218   2.3235   2.3771   2.3946   2.4787   2.5097
     2.5415   2.5644   2.5866   2.6156   2.6829   2.7269   2.7618   2.7713
     2.7845   2.8147   2.8739   2.9333   2.9685   3.0290   3.0984   3.1024
     3.1243   3.1932   3.2459   3.2699   3.2992   3.3420   3.3811   3.4148
     3.4608   3.4953   3.5254   3.5368   3.5491   3.6390   3.6478   3.6633
     3.7345   3.7508   3.7994   3.8052   3.8127   3.8246   3.8486   3.8727
     3.8777   3.9145   3.9179   3.9485   3.9813   3.9946   4.0119   4.0285
     4.0294   4.0427   4.0445   4.0816   4.1099   4.1223   4.1503   4.1660
     4.1692   4.1913   4.2027   4.2084   4.2285   4.2541   4.2783   4.2838
     4.2994   4.3003   4.3358   4.3455   4.3768   4.4100   4.4246   4.4414
     4.4694   4.5056   4.5548   4.5660   4.5810   4.5833   4.5965   4.6249
     4.6417   4.6963   4.8032   4.8192   4.8763   4.9116   4.9254   4.9713
     4.9752   5.0439   5.0697   5.0772   5.0934   5.1008   5.2103   5.2368
     5.2450   5.2517   5.2904   5.2968   5.3092   5.3343   5.3645   5.3699
     5.3753   5.4064   5.4447   5.4627   5.4635   5.4910   5.5316   5.5370
     5.5755   5.5950   5.6158   5.6418   5.6438   5.6861   5.7090   5.7300
     5.7918   5.8192   5.8262   5.8958   5.9134   5.9401   6.0107   6.0295
     6.0557   6.1051   6.1197   6.1521   6.1544   6.1739   6.1885   6.1991
     6.2200   6.2425   6.2475   6.2588   6.2645   6.2959   6.3293   6.3469
     6.3473   6.3587   6.3881   6.3899   6.4011   6.4666   6.4737   6.4738
     6.4820   6.5307   6.5364   6.5405   6.5461   6.5592   6.5874   6.6673
     6.7144   6.8398   6.8405   6.9640   7.0948   7.1915   7.3758   7.4281
     7.6598   7.7033   7.7552   7.9648   8.2563   8.3175   8.9662   8.9803
     9.0036   9.2328   9.2599   9.5719   9.6171   9.7776   9.8867  10.1475
    10.5114  10.7993  10.8090  11.0016  11.0536  11.2008  11.3368  11.3812
    11.5396  11.6726  11.8382  11.8471  11.9862  12.1284  12.2965  12.3097
    12.4713  12.8883  12.9857  13.0013  13.0877  13.4959  13.5798  13.6137
    13.6344  13.6812  13.9057  14.0576  14.1044  14.2324

          k = 0.1250 0.2406 0.0000 ( 27521 PWs)   bands (ev):

    -0.4405  -0.1060   0.3815   0.9506   1.4700   1.6491   1.7733   1.7998
     1.8669   1.8783   1.9189   2.0016   2.0358   2.1110   2.1460   2.1482
     2.1914   2.1931   2.2861   2.2891   2.3279   2.3414   2.3624   2.4179
     2.4339   2.4735   2.5109   2.5378   2.5972   2.6016   2.6485   2.6627
     2.6757   2.7098   2.7507   2.7935   2.8313   2.8787   2.9006   2.9845
     3.0231   3.1447   3.1693   3.2239   3.3058   3.3295   3.3594   3.4116
     3.4783   3.5042   3.5342   3.5627   3.5923   3.5983   3.7059   3.7155
     3.7248   3.7467   3.7592   3.7956   3.8030   3.8288   3.8391   3.8923
     3.9343   3.9628   3.9807   3.9979   4.0098   4.0303   4.0640   4.0780
     4.0964   4.1054   4.1321   4.1376   4.1530   4.1693   4.1986   4.2085
     4.2285   4.2346   4.2505   4.2698   4.2934   4.3025   4.3297   4.3331
     4.3542   4.3622   4.3880   4.4040   4.4320   4.4594   4.5038   4.5241
     4.5408   4.5422   4.5828   4.6191   4.6622   4.7084   4.7145   4.7275
     4.7638   4.7860   4.8183   4.8403   4.9104   4.9677   4.9680   5.0133
     5.0190   5.0346   5.0712   5.0941   5.1000   5.1253   5.1485   5.1945
     5.2264   5.2606   5.2808   5.3279   5.3347   5.3562   5.3720   5.4067
     5.4191   5.4635   5.4968   5.5193   5.5433   5.5796   5.5871   5.5938
     5.6077   5.6222   5.6794   5.6937   5.6972   5.7411   5.7628   5.8068
     5.8184   5.8260   5.9080   5.9377   5.9542   5.9587   5.9700   6.0125
     6.0186   6.0289   6.0881   6.1029   6.1345   6.1470   6.1559   6.1669
     6.1800   6.1869   6.2096   6.2189   6.2195   6.2427   6.2557   6.2772
     6.2888   6.3209   6.3422   6.3855   6.4199   6.4232   6.4527   6.4812
     6.4921   6.5111   6.5311   6.5393   6.5404   6.5495   6.6145   6.6670
     6.7671   6.8326   6.8351   6.8425   7.0300   7.0386   7.1255   7.1763
     7.2757   7.3470   7.5886   7.6744   8.0188   8.2464   8.3645   9.0041
     9.0950   9.2664   9.3013   9.4090   9.6380   9.7987   9.8458  10.0796
    10.3041  10.3668  10.5121  10.5824  10.8615  11.0970  11.2952  11.3706
    11.5076  11.7680  12.0032  12.0776  12.1582  12.2226  12.3317  12.5626
    12.7154  12.8588  12.8726  13.0125  13.0743  13.1329  13.2666  13.3371
    13.3808  13.5620  13.8518  13.9066  14.1482  14.2605

          k = 0.1250 0.3368 0.0000 ( 27501 PWs)   bands (ev):

    -0.1547   0.1715   0.6470   1.2038   1.5750   1.6801   1.7087   1.8192
     1.9139   1.9255   2.0014   2.0130   2.0351   2.0690   2.0732   2.1040
     2.1239   2.1539   2.1708   2.2157   2.2288   2.2884   2.2921   2.3457
     2.3731   2.3890   2.4278   2.4591   2.4816   2.5061   2.5473   2.5896
     2.5897   2.6479   2.6633   2.7333   2.7532   2.7623   2.8118   2.8660
     2.8937   3.1230   3.1761   3.2073   3.2933   3.3242   3.3858   3.3859
     3.4472   3.4624   3.5241   3.5613   3.5890   3.6087   3.6497   3.6545
     3.6589   3.7371   3.7661   3.8272   3.8380   3.8569   3.8702   3.9000
     3.9185   3.9449   3.9833   4.0104   4.0307   4.0359   4.0664   4.0812
     4.1010   4.1109   4.1300   4.1501   4.1827   4.2055   4.2084   4.2299
     4.2668   4.2919   4.2939   4.2994   4.3216   4.3229   4.3573   4.3764
     4.3934   4.3964   4.4340   4.4648   4.4953   4.5338   4.5557   4.5560
     4.6097   4.6271   4.6654   4.6926   4.7012   4.7243   4.7483   4.7675
     4.7893   4.7960   4.8487   4.9330   4.9425   4.9569   4.9628   5.0072
     5.0590   5.0698   5.0773   5.1289   5.1431   5.1550   5.1830   5.1842
     5.2299   5.2719   5.2970   5.3216   5.3478   5.3608   5.4003   5.4376
     5.4562   5.4986   5.5266   5.5332   5.5431   5.6301   5.6354   5.6756
     5.7012   5.7257   5.7562   5.7679   5.7925   5.7961   5.8727   5.8762
     5.9009   5.9079   5.9526   5.9553   5.9803   5.9884   6.0003   6.0313
     6.0322   6.0629   6.0720   6.1038   6.1205   6.1213   6.1470   6.1480
     6.1642   6.1747   6.1840   6.2320   6.2324   6.2474   6.2597   6.2809
     6.2922   6.3260   6.3377   6.3575   6.3808   6.3876   6.3910   6.4345
     6.4420   6.4812   6.5104   6.5147   6.5184   6.5487   6.5571   6.5637
     6.5807   6.6642   6.7070   6.8179   6.8227   6.9226   6.9712   7.0592
     7.1870   7.3456   7.5598   7.6638   7.8642   8.2603   8.3482   8.8021
     9.0299   9.1235   9.3083   9.4699   9.4729   9.6382   9.7733   9.8569
     9.9280  10.1338  10.2082  10.3902  10.5468  10.7550  10.8782  11.1786
    11.2673  11.6901  11.7289  11.9383  12.1099  12.2483  12.2800  12.3199
    12.4726  12.4819  12.7314  13.0057  13.2138  13.2599  13.5358  13.5406
    13.6859  13.7468  13.8812  14.0041  14.2537  14.3149

          k = 0.1250 0.4330 0.0000 ( 27522 PWs)   bands (ev):

     0.2063   0.5171   0.9683   1.3787   1.4916   1.6107   1.6117   1.7567
     1.8528   1.8594   1.9156   1.9644   1.9896   2.0034   2.0802   2.0954
     2.1473   2.1686   2.1982   2.2216   2.2394   2.2717   2.2762   2.3135
     2.3505   2.3859   2.3883   2.3930   2.3984   2.4794   2.4842   2.5328
     2.5527   2.6065   2.6238   2.7089   2.7139   2.7374   2.7671   2.8643
     3.0244   3.0909   3.1366   3.1503   3.2607   3.2985   3.3488   3.4094
     3.4221   3.4547   3.4688   3.4800   3.5527   3.5877   3.5906   3.6267
     3.6771   3.6909   3.7236   3.7373   3.8343   3.8367   3.8915   3.8966
     3.9164   3.9223   3.9322   3.9661   3.9920   4.0407   4.0455   4.0592
     4.0713   4.1074   4.1216   4.1512   4.1611   4.1934   4.2120   4.2131
     4.2432   4.2484   4.2913   4.3218   4.3468   4.3762   4.3830   4.3852
     4.4078   4.4465   4.4613   4.5158   4.5326   4.5451   4.5524   4.5565
     4.6097   4.6447   4.6708   4.7051   4.7696   4.7799   4.7990   4.8439
     4.8508   4.8797   4.8860   4.9073   4.9074   4.9482   4.9550   4.9713
     4.9784   5.0303   5.0732   5.1179   5.1598   5.1609   5.1929   5.2143
     5.2811   5.3284   5.3455   5.3612   5.3877   5.3883   5.4295   5.4532
     5.4855   5.4945   5.4973   5.5372   5.5489   5.5738   5.6433   5.6786
     5.7087   5.7420   5.7493   5.7688   5.8405   5.8545   5.8625   5.9021
     5.9146   5.9579   5.9702   5.9796   6.0271   6.0636   6.0662   6.0717
     6.0870   6.0905   6.1142   6.1340   6.1609   6.1951   6.2013   6.2022
     6.2082   6.2180   6.2285   6.2496   6.2573   6.2685   6.2731   6.2876
     6.2886   6.3145   6.3390   6.3548   6.3709   6.3753   6.3800   6.3968
     6.4316   6.4546   6.4732   6.5067   6.5375   6.5449   6.5503   6.5799
     6.6144   6.6565   6.6830   6.7908   6.7981   6.9103   6.9558   7.0722
     7.2982   7.4843   7.5298   7.7588   7.8870   8.2717   8.3488   8.5147
     8.7450   8.8106   9.0600   9.1492   9.2551   9.3437   9.6502   9.7892
     9.8019   9.9663  10.2437  10.3085  10.3246  10.7336  10.7663  11.1194
    11.2893  11.4399  11.5532  11.6095  11.6595  11.7684  12.0658  12.1626
    12.2720  12.4877  12.5137  12.7128  12.8815  13.2907  13.4125  13.5276
    13.6130  13.8496  14.0027  14.1637  14.2007  14.6934

          k = 0.1250 0.5292 0.0000 ( 27553 PWs)   bands (ev):

     0.6179   0.9017   1.0349   1.2810   1.3082   1.6013   1.6172   1.6504
     1.7828   1.8490   1.8751   1.8937   1.8997   1.9817   2.0480   2.0793
     2.1391   2.1540   2.1634   2.2024   2.2212   2.2445   2.2811   2.3110
     2.3426   2.3517   2.4043   2.4361   2.4700   2.4803   2.5225   2.5388
     2.5907   2.6632   2.6765   2.6786   2.7239   2.7860   2.8261   2.9483
     2.9914   3.0732   3.1140   3.1627   3.1772   3.2989   3.3291   3.3596
     3.3902   3.4376   3.4377   3.4694   3.4703   3.5593   3.5648   3.6090
     3.6243   3.6442   3.6738   3.7351   3.7745   3.7777   3.8178   3.8598
     3.8802   3.8955   3.9331   3.9558   3.9574   3.9725   4.0188   4.0727
     4.0827   4.0988   4.1098   4.1380   4.1782   4.1845   4.1937   4.2005
     4.2288   4.2463   4.2520   4.3212   4.3305   4.3674   4.3687   4.4062
     4.4267   4.4378   4.4619   4.4823   4.5011   4.5179   4.5424   4.5430
     4.5695   4.6477   4.7123   4.7718   4.8045   4.8436   4.8543   4.8807
     4.8936   4.9178   4.9190   4.9458   4.9516   4.9815   5.0068   5.0114
     5.0163   5.0433   5.0929   5.1392   5.1547   5.1929   5.2271   5.2326
     5.2582   5.2863   5.3118   5.3122   5.3356   5.3691   5.4010   5.4323
     5.4706   5.4778   5.5009   5.5691   5.5724   5.5984   5.6417   5.6501
     5.6608   5.6850   5.6915   5.7597   5.7780   5.7906   5.7990   5.8397
     5.8737   5.9235   5.9370   6.0302   6.0448   6.0553   6.0758   6.0884
     6.0983   6.1205   6.1314   6.1562   6.1652   6.2246   6.2348   6.2378
     6.2488   6.2577   6.2772   6.2822   6.2921   6.3122   6.3268   6.3367
     6.3498   6.3642   6.3820   6.3937   6.4011   6.4100   6.4198   6.4471
     6.4823   6.5082   6.5342   6.5397   6.5501   6.5943   6.6248   6.6537
     6.6554   6.6612   6.6786   6.7480   6.7854   6.9536   7.0459   7.1993
     7.5525   7.6292   7.7927   7.8826   7.9080   8.1019   8.1864   8.1907
     8.4424   8.5572   8.7580   8.8609   9.0160   9.1028   9.3703   9.8566
     9.9073  10.0776  10.1009  10.3275  10.5030  10.7767  10.9418  11.0386
    11.0894  11.2416  11.3475  11.3506  11.4690  11.5748  11.9607  12.1051
    12.1413  12.4424  12.4881  12.6180  12.8206  13.0319  13.3350  13.4285
    13.6311  13.7213  13.9578  14.0587  14.0628  14.4232

          k = 0.2083 0.0481 0.0000 ( 27525 PWs)   bands (ev):

    -0.5875  -0.2496   0.2427   0.8164   1.3393   1.6471   1.7556   1.7632
     1.7976   1.8384   1.9731   1.9924   2.0435   2.1387   2.1986   2.2513
     2.3434   2.3554   2.4224   2.4307   2.4986   2.5684   2.5826   2.6600
     2.6792   2.7041   2.7049   2.7572   2.7855   2.8081   2.8791   2.9155
     2.9434   2.9595   3.0503   3.1030   3.1074   3.1522   3.1761   3.1941
     3.2303   3.2800   3.2947   3.3107   3.3160   3.3304   3.3375   3.4119
     3.4487   3.4696   3.4919   3.5190   3.5547   3.5577   3.6149   3.6488
     3.6568   3.6680   3.6801   3.7575   3.7582   3.7859   3.7903   3.8405
     3.8605   3.8663   3.8919   3.8982   3.9539   3.9569   3.9690   3.9693
     3.9963   4.0049   4.0287   4.0463   4.0478   4.0589   4.0753   4.1147
     4.1393   4.1420   4.1498   4.1501   4.1722   4.1759   4.1832   4.1910
     4.2537   4.2613   4.2634   4.2951   4.3093   4.3241   4.3851   4.3898
     4.4032   4.4614   4.4710   4.4814   4.4939   4.5499   4.5980   4.6148
     4.6167   4.7270   4.7719   4.8304   4.8532   4.8764   4.8891   4.9103
     4.9776   4.9897   5.0121   5.0544   5.0720   5.0853   5.0944   5.1428
     5.1878   5.1884   5.2127   5.2231   5.2445   5.2591   5.2679   5.3249
     5.3352   5.3522   5.3821   5.3930   5.3937   5.4293   5.4681   5.5075
     5.5134   5.5391   5.5516   5.5628   5.5941   5.6258   5.6284   5.7288
     5.7502   5.7959   5.8127   5.8595   5.8615   5.9377   5.9451   5.9624
     6.0561   6.0698   6.0979   6.1093   6.1359   6.1470   6.1636   6.1799
     6.1802   6.2091   6.2325   6.2353   6.2545   6.2720   6.2763   6.2854
     6.2856   6.2963   6.3090   6.3259   6.3629   6.3792   6.3852   6.4200
     6.4220   6.4349   6.4378   6.4540   6.4962   6.5571   6.6186   6.6397
     6.6677   6.6848   6.6941   6.7144   6.7159   6.8757   7.0632   7.0975
     7.5948   7.7918   8.3050   8.5498   8.8266   9.0720   9.0888   9.3477
     9.4147   9.6603   9.7165   9.7776   9.8378   9.9723  10.0377  10.2621
    10.4360  10.4454  10.6214  11.0044  11.0661  11.2102  11.3680  11.4649
    11.5087  11.5922  11.6758  11.7801  12.0043  12.0996  12.1629  12.5154
    12.7545  12.8505  12.9639  13.0674  13.4246  13.5702  13.6158  13.7457
    13.7555  13.7672  14.1033  14.1305  14.1524  14.3916

          k = 0.2083 0.1443 0.0000 ( 27514 PWs)   bands (ev):

    -0.4894  -0.1536   0.3358   0.9069   1.4283   1.7306   1.7477   1.7898
     1.8359   1.8508   1.9450   2.0294   2.0433   2.1317   2.2215   2.2722
     2.2934   2.3509   2.3716   2.4375   2.4380   2.4653   2.4713   2.5878
     2.5890   2.6117   2.6880   2.6883   2.7051   2.7847   2.7883   2.8161
     2.8617   2.8766   2.9015   2.9878   3.0069   3.0791   3.1068   3.1252
     3.1794   3.1957   3.2608   3.3236   3.3392   3.3704   3.4276   3.4379
     3.4382   3.4498   3.4950   3.5051   3.5630   3.5836   3.6179   3.6259
     3.7277   3.7314   3.7374   3.7494   3.7596   3.8015   3.8132   3.8390
     3.8767   3.8832   3.9150   3.9397   3.9495   3.9668   3.9785   3.9985
     4.0263   4.0382   4.0767   4.1155   4.1164   4.1334   4.1679   4.1795
     4.1828   4.2000   4.2100   4.2233   4.2266   4.2495   4.2891   4.3070
     4.3126   4.3152   4.3250   4.3455   4.3482   4.3603   4.3605   4.4811
     4.4828   4.4891   4.5158   4.5238   4.5441   4.5650   4.5823   4.5969
     4.6382   4.6825   4.7635   4.7902   4.8287   4.8362   4.8764   4.9330
     4.9526   4.9753   4.9946   5.0288   5.0593   5.1062   5.1347   5.1544
     5.1652   5.1928   5.1964   5.2143   5.2398   5.2971   5.3091   5.3470
     5.3535   5.3610   5.3813   5.3901   5.4523   5.4538   5.4715   5.4918
     5.5231   5.5271   5.5525   5.5765   5.6200   5.6434   5.6725   5.6826
     5.7534   5.8167   5.8219   5.8595   5.9232   5.9374   5.9442   5.9699
     5.9949   6.0155   6.0518   6.0729   6.0950   6.1193   6.1466   6.1594
     6.1616   6.1717   6.1933   6.2112   6.2240   6.2481   6.2592   6.2648
     6.2717   6.3122   6.3220   6.3399   6.3663   6.3729   6.3870   6.4134
     6.4312   6.4314   6.4523   6.4826   6.5006   6.5579   6.6099   6.6146
     6.6739   6.6775   6.7111   6.7149   6.7548   6.8584   7.0815   7.2084
     7.5872   7.7916   7.9544   8.0388   8.2635   8.3151   8.6850   9.0904
     9.2937   9.4721   9.7443   9.8460   9.8476  10.0410  10.2084  10.3990
    10.4852  10.5949  10.7893  11.0412  11.0646  11.1419  11.2130  11.4139
    11.4747  11.6774  11.7863  11.8818  11.9904  12.2139  12.2571  12.4301
    12.6410  12.9962  13.0108  13.1153  13.1581  13.5265  13.5948  13.6174
    13.7708  13.9136  14.2079  14.2931  14.2967  14.4465

          k = 0.2083 0.2406 0.0000 ( 27501 PWs)   bands (ev):

    -0.2963   0.0346   0.5171   1.0820   1.5993   1.6534   1.7753   1.8822
     1.8926   1.9848   1.9973   2.0383   2.0947   2.0984   2.1597   2.2191
     2.2451   2.2592   2.3038   2.3195   2.3701   2.4264   2.4483   2.4701
     2.4759   2.5039   2.5475   2.6340   2.6433   2.7050   2.7104   2.7329
     2.7749   2.7849   2.7928   2.8492   2.8588   2.9119   2.9842   3.0680
     3.1049   3.1620   3.1923   3.2885   3.3108   3.3178   3.3840   3.4263
     3.4413   3.4638   3.5068   3.5135   3.5746   3.5921   3.6518   3.6647
     3.6707   3.7031   3.7572   3.7579   3.7961   3.8140   3.8367   3.9080
     3.9101   3.9155   3.9377   3.9724   4.0156   4.0159   4.0255   4.0787
     4.0922   4.1175   4.1386   4.1448   4.1557   4.1816   4.2015   4.2208
     4.2248   4.2406   4.2647   4.2693   4.2794   4.2940   4.3176   4.3242
     4.3438   4.3909   4.4115   4.4228   4.4443   4.4655   4.4815   4.4816
     4.5152   4.5788   4.5827   4.5914   4.6121   4.6541   4.6663   4.6792
     4.7208   4.7319   4.7555   4.8105   4.8122   4.8659   4.8812   4.9126
     4.9542   4.9778   5.0015   5.0112   5.0294   5.0557   5.0993   5.1107
     5.1485   5.1898   5.1991   5.2505   5.2745   5.3005   5.3231   5.3607
     5.3796   5.4085   5.4477   5.4580   5.4668   5.4929   5.5123   5.5351
     5.5807   5.5892   5.6004   5.6186   5.6597   5.6703   5.6850   5.7551
     5.7627   5.7696   5.8025   5.8419   5.8697   5.8959   5.9061   5.9526
     5.9921   5.9938   6.0248   6.0623   6.0647   6.0748   6.0791   6.1528
     6.1702   6.1770   6.1853   6.2040   6.2152   6.2202   6.2300   6.2492
     6.2651   6.2977   6.3308   6.3645   6.3736   6.3913   6.4052   6.4097
     6.4351   6.4446   6.4798   6.4927   6.5162   6.5306   6.5648   6.5891
     6.6477   6.6608   6.7034   6.7099   6.8301   6.9007   7.0562   7.1588
     7.3105   7.3800   7.5687   7.5831   7.8961   8.2718   8.3434   8.6555
     9.1222   9.5025   9.5992   9.6731   9.8453   9.8994   9.9252  10.1182
    10.1417  10.4139  10.5511  10.5840  10.7316  11.0367  11.2436  11.4985
    11.5490  11.6985  11.9459  12.1921  12.2855  12.3444  12.3901  12.6902
    12.8316  12.9813  13.1480  13.2769  13.2782  13.3735  13.5421  13.6266
    13.8338  14.0744  14.1922  14.2432  14.3197  14.3742

          k = 0.2083 0.3368 0.0000 ( 27495 PWs)   bands (ev):

    -0.0151   0.3064   0.7753   1.3264   1.5900   1.7082   1.8301   1.8310
     1.9456   2.0089   2.0219   2.0863   2.1130   2.1327   2.1388   2.1783
     2.1825   2.2188   2.2314   2.2430   2.3319   2.3376   2.3560   2.3710
     2.4394   2.4678   2.5197   2.5291   2.5602   2.5778   2.5928   2.6454
     2.6575   2.6895   2.7542   2.8136   2.8174   2.8851   2.8935   2.9371
     2.9591   3.1393   3.2153   3.2254   3.2907   3.3115   3.3499   3.3551
     3.4329   3.4826   3.5072   3.5365   3.5512   3.5737   3.5851   3.6107
     3.6649   3.6858   3.7539   3.7726   3.8099   3.8529   3.8614   3.8868
     3.9017   3.9261   3.9370   3.9548   4.0236   4.0270   4.0464   4.0552
     4.0640   4.0829   4.1072   4.1595   4.1874   4.1998   4.2162   4.2363
     4.2452   4.2576   4.2646   4.2896   4.3101   4.3113   4.3352   4.3811
     4.3900   4.4132   4.4285   4.4388   4.4751   4.5482   4.5767   4.5776
     4.5903   4.6012   4.6306   4.6544   4.6568   4.6745   4.6990   4.7091
     4.7612   4.8105   4.8238   4.8571   4.9028   4.9056   4.9424   4.9486
     4.9814   4.9957   5.0041   5.0269   5.0472   5.0796   5.1037   5.1191
     5.1784   5.1879   5.2399   5.2447   5.2744   5.3611   5.3900   5.4134
     5.4328   5.4397   5.4519   5.4758   5.4820   5.5324   5.5461   5.5659
     5.6085   5.6460   5.6702   5.6971   5.7383   5.7523   5.7866   5.8085
     5.8305   5.8442   5.8989   5.9032   5.9218   5.9411   5.9698   5.9793
     6.0058   6.0071   6.0204   6.0394   6.0464   6.0814   6.1018   6.1391
     6.1398   6.1781   6.1948   6.1949   6.2032   6.2222   6.2341   6.2438
     6.2650   6.3061   6.3107   6.3442   6.3787   6.3863   6.4064   6.4170
     6.4304   6.4543   6.4589   6.4614   6.5123   6.5158   6.5585   6.5633
     6.6244   6.6390   6.6865   6.7001   6.7128   6.7900   6.8080   6.9037
     7.0367   7.0445   7.3471   7.6134   7.6835   8.1149   8.4009   8.5023
     8.9270   9.0182   9.0663   9.2273   9.4169   9.6256   9.8882   9.9212
    10.0437  10.2489  10.4615  10.5331  10.6277  10.8576  11.0518  11.0606
    11.3895  11.5826  11.8924  12.0834  12.0923  12.4529  12.5621  12.5975
    13.0402  13.1130  13.2451  13.3725  13.4832  13.6399  13.6615  13.7672
    13.9446  14.0387  14.0911  14.3827  14.4077  14.5308

          k = 0.2083 0.4330 0.0000 ( 27535 PWs)   bands (ev):

     0.3412   0.6460   1.0889   1.5163   1.5724   1.6072   1.7333   1.8180
     1.8302   1.9505   1.9605   2.0370   2.0716   2.0771   2.1040   2.1152
     2.1957   2.2403   2.2549   2.2913   2.3040   2.3573   2.3868   2.3923
     2.4433   2.4563   2.4620   2.4842   2.4883   2.5105   2.5702   2.5776
     2.6370   2.7007   2.7074   2.7508   2.7938   2.8262   2.8355   2.9982
     3.0534   3.1083   3.1701   3.1813   3.2440   3.2731   3.3153   3.3871
     3.3901   3.4221   3.4609   3.4900   3.4902   3.5387   3.5669   3.5912
     3.6492   3.6889   3.6930   3.7070   3.7237   3.8057   3.8413   3.8594
     3.8802   3.8988   3.9212   3.9235   3.9561   3.9907   4.0172   4.0245
     4.0274   4.0681   4.0735   4.0782   4.1448   4.1598   4.1891   4.2092
     4.2400   4.2412   4.2595   4.2870   4.3072   4.3392   4.3527   4.3721
     4.3826   4.4133   4.4162   4.4575   4.4865   4.5209   4.5396   4.5412
     4.5835   4.6417   4.6596   4.7014   4.7478   4.7532   4.7586   4.8230
     4.8425   4.8456   4.8582   4.9193   4.9278   4.9426   4.9564   4.9811
     5.0152   5.0261   5.0808   5.1085   5.1555   5.1765   5.1769   5.1965
     5.2198   5.2272   5.2582   5.3035   5.3064   5.3368   5.3412   5.3969
     5.4362   5.4786   5.4940   5.5344   5.5448   5.5724   5.6117   5.6209
     5.6413   5.6562   5.7298   5.7753   5.8014   5.8479   5.8669   5.8841
     5.9184   5.9496   5.9625   5.9862   6.0084   6.0165   6.0291   6.0393
     6.0422   6.0607   6.0682   6.0952   6.1001   6.1253   6.1339   6.1423
     6.1687   6.1737   6.1868   6.2001   6.2193   6.2257   6.2356   6.2708
     6.2723   6.2783   6.3098   6.3178   6.3509   6.3510   6.3837   6.3899
     6.4026   6.4163   6.4404   6.4434   6.4466   6.4756   6.4960   6.5086
     6.5481   6.5935   6.6018   6.6630   6.6830   6.7184   6.7232   6.8592
     6.9699   7.1298   7.2890   7.6102   7.7382   8.0671   8.1679   8.3634
     8.3997   8.4577   8.7158   8.9061   8.9642   9.3241   9.4099   9.7508
     9.9371  10.1393  10.4982  10.5358  10.7904  10.9617  10.9863  11.0081
    11.3909  11.6671  11.7683  11.8454  12.1723  12.2999  12.4105  12.4400
    12.6151  12.6157  12.9277  13.1746  13.4024  13.5754  13.6317  13.7315
    13.9240  14.1859  14.2842  14.2855  14.7176  14.8160

          k = 0.2083 0.5292 0.0000 ( 27542 PWs)   bands (ev):

     0.7501   1.0260   1.1688   1.4025   1.4232   1.6067   1.6938   1.7255
     1.8537   1.8898   1.9311   1.9418   1.9646   2.0855   2.0887   2.1379
     2.1459   2.2168   2.2309   2.2416   2.2893   2.3437   2.3478   2.4010
     2.4164   2.4284   2.4889   2.5322   2.5394   2.5924   2.6073   2.6191
     2.7087   2.7164   2.7552   2.7676   2.7828   2.8833   2.9313   2.9870
     3.0698   3.0935   3.1564   3.1813   3.1870   3.2477   3.2932   3.3115
     3.3517   3.3737   3.4161   3.4311   3.4649   3.4766   3.4911   3.5397
     3.5791   3.6008   3.6471   3.6664   3.6855   3.7886   3.8182   3.8485
     3.8517   3.8585   3.8929   3.9279   3.9448   3.9643   3.9699   3.9987
     4.0122   4.0297   4.0502   4.0632   4.1247   4.1369   4.1614   4.1703
     4.2007   4.2146   4.2265   4.2488   4.2595   4.2694   4.2949   4.3760
     4.4081   4.4102   4.4217   4.4414   4.5043   4.5298   4.5304   4.5552
     4.5661   4.6622   4.7194   4.7579   4.7699   4.8218   4.8352   4.8473
     4.8556   4.9084   4.9116   4.9237   4.9406   4.9467   4.9552   5.0317
     5.0458   5.0845   5.1316   5.1883   5.1885   5.2191   5.2290   5.2687
     5.2771   5.2795   5.3154   5.3590   5.3751   5.3882   5.4188   5.4615
     5.4624   5.4783   5.5263   5.5472   5.5563   5.5964   5.6530   5.6632
     5.6822   5.6870   5.7401   5.7671   5.7944   5.8123   5.8175   5.8328
     5.8775   5.9058   5.9143   5.9746   5.9895   5.9984   6.0240   6.0403
     6.0635   6.0644   6.0910   6.1078   6.1110   6.1271   6.1462   6.1587
     6.1598   6.1638   6.1899   6.1919   6.2251   6.2354   6.2404   6.2418
     6.2635   6.2768   6.2770   6.2897   6.3132   6.3469   6.3515   6.3913
     6.4405   6.4451   6.4512   6.4686   6.5025   6.5070   6.5626   6.5718
     6.5768   6.5934   6.6571   6.6610   6.6759   6.7981   6.9863   7.1044
     7.2568   7.2669   7.4133   7.5111   7.6023   7.7092   7.9024   7.9880
     8.0954   8.2152   8.2775   8.7358   8.9292   9.0115   9.1527   9.6529
     9.8853  10.0481  10.2263  10.5773  10.9048  11.1810  11.2912  11.3185
    11.5139  11.5187  11.7286  11.8405  11.9628  12.0148  12.3031  12.3516
    12.3761  12.5738  12.6338  12.9212  13.2234  13.4743  13.5125  13.8013
    13.8406  14.0120  14.1874  14.2947  14.5000  14.5315

          k = 0.2917 0.0481 0.0000 ( 27533 PWs)   bands (ev):

    -0.3679  -0.0349   0.4511   1.0199   1.4556   1.5408   1.6541   1.8361
     1.9269   1.9355   1.9443   1.9686   2.1028   2.2044   2.2445   2.3261
     2.3930   2.5203   2.5523   2.5643   2.5777   2.5963   2.6684   2.6990
     2.7748   2.7842   2.7957   2.8213   2.8532   2.8981   2.9215   2.9350
     2.9424   3.0440   3.0638   3.0968   3.1118   3.1539   3.1657   3.1789
     3.2335   3.2559   3.2801   3.3022   3.3250   3.3273   3.3482   3.4155
     3.4272   3.4532   3.4655   3.4692   3.4858   3.5124   3.5212   3.5938
     3.6199   3.6485   3.6888   3.6940   3.6944   3.7454   3.7759   3.8332
     3.8502   3.8564   3.8647   3.8940   3.8963   3.9155   3.9347   3.9770
     3.9803   4.0122   4.0329   4.0457   4.0603   4.0903   4.1008   4.1094
     4.1256   4.1567   4.1717   4.1816   4.1936   4.1967   4.2038   4.2606
     4.2651   4.2823   4.3028   4.3275   4.3625   4.3822   4.3898   4.4017
     4.4111   4.4377   4.4434   4.4577   4.4625   4.5955   4.6093   4.6158
     4.6226   4.6959   4.7258   4.7628   4.8219   4.8452   4.8496   4.9044
     4.9123   4.9634   4.9719   5.0019   5.0082   5.0355   5.0754   5.0935
     5.1157   5.1204   5.1405   5.1795   5.1826   5.2002   5.2228   5.2243
     5.2857   5.2984   5.3321   5.3362   5.3568   5.3581   5.3914   5.4377
     5.4534   5.5069   5.5215   5.5353   5.5499   5.5814   5.6348   5.6491
     5.6986   5.7256   5.7369   5.8221   5.8333   5.8762   5.9150   5.9195
     5.9645   5.9672   5.9962   6.0443   6.0552   6.0739   6.0749   6.0936
     6.1065   6.1110   6.1511   6.1572   6.1703   6.1842   6.1868   6.2080
     6.2286   6.2372   6.2451   6.2462   6.2553   6.2665   6.2716   6.2852
     6.2970   6.3180   6.3323   6.3533   6.3781   6.4639   6.4767   6.5108
     6.5382   6.5730   6.6074   6.6164   6.6330   6.6516   6.8433   7.0693
     7.3901   7.7618   8.1870   8.5056   8.9505   9.1543   9.2744   9.4316
     9.5966   9.8072  10.0619  10.1079  10.1143  10.3163  10.4055  10.5699
    10.6039  10.7539  10.8439  10.9612  10.9989  11.2135  11.2963  11.3199
    11.4308  11.5299  11.7078  11.8930  12.1669  12.2806  12.3411  12.6966
    12.9220  12.9952  13.0182  13.0288  13.1763  13.3816  13.5638  13.6375
    13.8094  13.9922  14.0035  14.0995  14.2531  14.3141

          k = 0.2917 0.1443 0.0000 ( 27530 PWs)   bands (ev):

    -0.2732   0.0570   0.5388   1.1032   1.4454   1.6203   1.6548   1.9078
     1.9173   1.9602   2.0071   2.0273   2.1383   2.1893   2.2043   2.3475
     2.4341   2.4353   2.4510   2.5195   2.5383   2.5685   2.6043   2.6252
     2.6464   2.6556   2.7144   2.8171   2.8213   2.8306   2.8465   2.8946
     2.9346   2.9367   2.9852   3.0257   3.0585   3.0861   3.1119   3.1637
     3.2038   3.2685   3.2936   3.3120   3.3451   3.3705   3.3712   3.4124
     3.4393   3.4559   3.4617   3.5057   3.5393   3.5590   3.5597   3.6360
     3.6485   3.6624   3.6768   3.6881   3.7306   3.7387   3.7485   3.7993
     3.8001   3.8451   3.8993   3.9114   3.9280   3.9459   3.9840   3.9866
     4.0504   4.0855   4.1023   4.1092   4.1227   4.1406   4.1423   4.1627
     4.1958   4.2083   4.2324   4.2449   4.2613   4.2783   4.2795   4.2984
     4.2990   4.3069   4.3330   4.3445   4.3605   4.3654   4.3885   4.3963
     4.4484   4.4567   4.4754   4.5009   4.5577   4.5773   4.6040   4.6215
     4.6455   4.7053   4.7455   4.7702   4.7768   4.7880   4.8283   4.8642
     4.8845   4.8860   4.9386   4.9499   4.9932   5.0204   5.0339   5.0605
     5.0776   5.1208   5.1406   5.1763   5.1883   5.2045   5.2363   5.2655
     5.2807   5.3083   5.3301   5.3404   5.3712   5.3907   5.4248   5.4409
     5.4768   5.5003   5.5011   5.5481   5.5620   5.5691   5.6393   5.6443
     5.7066   5.7249   5.7643   5.8028   5.8060   5.8300   5.8640   5.8655
     5.8746   5.9469   5.9602   6.0247   6.0371   6.0388   6.0700   6.0843
     6.0972   6.0974   6.1135   6.1275   6.1582   6.1740   6.2027   6.2198
     6.2304   6.2484   6.2506   6.2655   6.2772   6.2789   6.2877   6.3085
     6.3209   6.3430   6.3651   6.3889   6.3984   6.4818   6.4912   6.5124
     6.5533   6.5658   6.6197   6.6323   6.6432   6.6858   6.9247   7.0653
     7.4938   7.7763   8.1508   8.2735   8.3698   8.5299   8.6313   9.1128
     9.2908   9.6030   9.8272   9.8986  10.0791  10.2286  10.2738  10.5217
    10.6216  10.7042  10.8690  11.0463  11.1560  11.2896  11.3936  11.4103
    11.5979  11.8268  11.8561  11.9337  12.2274  12.3668  12.3864  12.6323
    12.9058  12.9942  13.0565  13.1418  13.3113  13.3800  13.4738  13.6658
    13.9659  13.9696  14.0722  14.2747  14.3066  14.3948

          k = 0.2917 0.2406 0.0000 ( 27522 PWs)   bands (ev):

    -0.0866   0.2374   0.7098   1.2644   1.4409   1.6634   1.7736   1.9118
     1.9509   2.0467   2.1078   2.1414   2.1657   2.1977   2.2007   2.2930
     2.3162   2.3263   2.3856   2.4620   2.4852   2.5089   2.5097   2.5371
     2.5513   2.5992   2.6825   2.6915   2.7309   2.7659   2.7811   2.8203
     2.8366   2.8721   2.8949   2.9233   2.9794   2.9984   3.0498   3.1143
     3.1929   3.1967   3.2507   3.2640   3.3061   3.3322   3.3686   3.4055
     3.4541   3.4594   3.4863   3.4880   3.5507   3.5822   3.5853   3.5952
     3.6084   3.6441   3.6952   3.7272   3.7467   3.7602   3.8196   3.8576
     3.8903   3.8914   3.9214   3.9385   3.9709   4.0351   4.0531   4.0547
     4.0662   4.0916   4.1084   4.1354   4.1385   4.1723   4.1753   4.1855
     4.2118   4.2337   4.2619   4.2644   4.2897   4.3137   4.3408   4.3498
     4.3582   4.3780   4.3813   4.4095   4.4363   4.4469   4.4590   4.4716
     4.5280   4.5542   4.5637   4.5806   4.6094   4.6278   4.6326   4.6456
     4.6841   4.7017   4.7019   4.7118   4.7354   4.7756   4.7949   4.8115
     4.8460   4.8835   4.9263   4.9599   4.9687   5.0078   5.0127   5.0384
     5.0689   5.1175   5.1236   5.1919   5.2004   5.2363   5.2561   5.2732
     5.3488   5.3589   5.3631   5.3937   5.4211   5.4353   5.4442   5.4745
     5.4968   5.5276   5.5318   5.5618   5.5752   5.5878   5.6161   5.6323
     5.6586   5.6666   5.6845   5.7682   5.7791   5.8157   5.8261   5.8399
     5.8633   5.8665   5.9260   5.9806   5.9827   6.0402   6.0446   6.0781
     6.0987   6.1182   6.1455   6.1530   6.1743   6.1849   6.1849   6.2162
     6.2221   6.2270   6.2573   6.2654   6.2811   6.2991   6.3314   6.3323
     6.3450   6.3679   6.4064   6.4117   6.4571   6.4814   6.5277   6.5319
     6.5519   6.5594   6.6250   6.6369   6.6609   6.7071   7.0718   7.0724
     7.4952   7.6055   7.6510   7.8153   7.9145   8.2539   8.5741   8.5796
     9.0191   9.1775   9.3183   9.4512   9.7536   9.9024   9.9146  10.1068
    10.4931  10.5535  10.7647  10.8738  11.0009  11.0828  11.2964  11.5453
    11.7826  12.0279  12.1210  12.3495  12.4784  12.4982  12.6505  12.9365
    12.9769  13.0761  13.1677  13.2625  13.3214  13.5243  13.7075  13.8268
    13.9554  14.1423  14.3749  14.5299  14.6824  14.7065

          k = 0.2917 0.3368 0.0000 ( 27531 PWs)   bands (ev):

     0.1858   0.4985   0.9540   1.4600   1.4902   1.6925   1.8937   1.9302
     1.9844   2.0384   2.1107   2.1115   2.1857   2.2151   2.2357   2.2487
     2.3181   2.3328   2.3628   2.3654   2.3756   2.4307   2.4338   2.4671
     2.5628   2.5868   2.5917   2.6208   2.6454   2.6637   2.6784   2.7284
     2.7644   2.7660   2.8679   2.8938   2.9182   2.9537   2.9893   3.0777
     3.0835   3.1696   3.1772   3.2461   3.2820   3.2913   3.3228   3.3420
     3.4119   3.4750   3.4861   3.5107   3.5186   3.5224   3.5661   3.5860
     3.6240   3.6612   3.6743   3.6991   3.7444   3.8140   3.8360   3.8493
     3.8922   3.8974   3.9201   3.9648   3.9943   3.9944   4.0213   4.0368
     4.0444   4.0703   4.0853   4.1067   4.1252   4.1357   4.1951   4.2250
     4.2319   4.2467   4.2529   4.2795   4.2897   4.3137   4.3320   4.3391
     4.3693   4.3985   4.4064   4.4400   4.4492   4.5034   4.5197   4.5361
     4.5841   4.5865   4.5951   4.6078   4.6435   4.6644   4.6740   4.6879
     4.7153   4.7319   4.7528   4.7843   4.8156   4.8613   4.8700   4.8792
     4.8952   4.9505   4.9567   4.9823   5.0013   5.0313   5.0743   5.0995
     5.1377   5.1398   5.1421   5.1933   5.2510   5.2673   5.2742   5.3281
     5.3517   5.3689   5.3694   5.4299   5.4757   5.4833   5.4861   5.5075
     5.5350   5.5666   5.5823   5.6233   5.6729   5.6741   5.6831   5.7017
     5.7038   5.7509   5.7618   5.7851   5.7939   5.8217   5.8335   5.8486
     5.8631   5.8956   5.9247   5.9512   5.9725   6.0351   6.0438   6.0590
     6.0742   6.1248   6.1333   6.1501   6.1661   6.1850   6.2034   6.2165
     6.2168   6.2342   6.2432   6.2499   6.2750   6.2942   6.3216   6.3389
     6.3789   6.3867   6.4064   6.4446   6.4483   6.4766   6.4999   6.5278
     6.5558   6.5710   6.5796   6.6461   6.6881   6.7858   6.9632   7.0525
     7.1243   7.1976   7.2155   7.6809   7.8624   7.8905   8.4280   8.4911
     8.5652   8.7091   8.7554   8.9832   9.3041   9.4020   9.6119   9.8260
    10.2200  10.2960  10.4216  10.8096  11.1013  11.1537  11.2807  11.2938
    11.4191  11.8596  12.1902  12.3047  12.3903  12.6590  12.7771  12.8746
    13.1662  13.4158  13.5388  13.7484  13.7665  13.9640  14.0431  14.2054
    14.2494  14.3758  14.4866  14.5531  14.5900  14.7421

          k = 0.2917 0.4330 0.0000 ( 27509 PWs)   bands (ev):

     0.5326   0.8262   1.2518   1.5141   1.7085   1.7532   1.7534   1.8920
     1.9131   1.9790   2.0177   2.0827   2.1293   2.1448   2.1528   2.2326
     2.3010   2.3165   2.3280   2.3573   2.4182   2.4609   2.4811   2.5225
     2.5239   2.5407   2.5660   2.5991   2.6022   2.6063   2.6513   2.6854
     2.7794   2.7947   2.8137   2.8252   2.8670   2.9314   2.9514   3.0896
     3.1081   3.1388   3.1648   3.2289   3.2319   3.2648   3.2905   3.3384
     3.3443   3.3849   3.4265   3.4528   3.4670   3.5106   3.5120   3.5479
     3.6049   3.6276   3.6588   3.6833   3.6976   3.7372   3.7526   3.7720
     3.8402   3.8816   3.8832   3.9063   3.9424   3.9833   3.9838   4.0155
     4.0209   4.0318   4.0680   4.0772   4.0803   4.1304   4.1570   4.1587
     4.1966   4.2176   4.2241   4.2477   4.2739   4.2765   4.3113   4.3149
     4.3202   4.3745   4.3776   4.4473   4.4712   4.4712   4.5323   4.5349
     4.5449   4.5883   4.6110   4.6810   4.7221   4.7245   4.7481   4.7788
     4.7892   4.8658   4.8760   4.8899   4.9351   4.9598   4.9607   4.9693
     4.9779   4.9818   5.0012   5.0227   5.0702   5.1158   5.1380   5.1418
     5.1799   5.1922   5.2349   5.2410   5.2783   5.2838   5.3146   5.3508
     5.3678   5.4077   5.4762   5.4763   5.4833   5.5013   5.6041   5.6068
     5.6084   5.6378   5.6461   5.6784   5.7056   5.7704   5.7817   5.7930
     5.8059   5.8249   5.8498   5.8678   5.8725   5.8741   5.9027   5.9342
     5.9628   5.9905   6.0005   6.0151   6.0400   6.0551   6.0712   6.0792
     6.1141   6.1173   6.1389   6.1584   6.1673   6.1730   6.1871   6.2080
     6.2330   6.2467   6.2603   6.2727   6.2728   6.2847   6.2931   6.3268
     6.3593   6.3935   6.4058   6.4063   6.4319   6.4490   6.4510   6.5059
     6.5222   6.5432   6.5657   6.5896   6.6061   6.6380   6.6892   6.7296
     6.9244   7.0478   7.2740   7.5483   7.7307   7.8008   7.9451   7.9758
     8.2575   8.2894   8.5463   8.5880   8.8933   9.1191   9.3416   9.6246
     9.7715  10.1320  10.2449  10.7221  10.7303  11.2131  11.2952  11.4933
    11.6754  11.8662  11.9899  12.2620  12.4260  12.4967  12.8159  12.8850
    13.0533  13.4297  13.5616  13.7753  13.7853  13.8453  13.9319  14.1192
    14.2917  14.4480  14.4595  14.8027  14.9470  14.9801

          k = 0.2917 0.5292 0.0000 ( 27525 PWs)   bands (ev):

     0.9342   1.1954   1.3533   1.5603   1.5753   1.6084   1.7428   1.8517
     1.8582   1.9865   2.0084   2.0150   2.0593   2.1098   2.1686   2.1984
     2.2247   2.2804   2.3081   2.3319   2.3550   2.4285   2.4666   2.4878
     2.5137   2.5477   2.5681   2.6211   2.6824   2.7237   2.7341   2.7667
     2.7884   2.8148   2.8467   2.8572   2.9033   2.9599   3.0564   3.0663
     3.0851   3.1120   3.1290   3.1882   3.2022   3.2065   3.2418   3.2568
     3.3071   3.3493   3.3797   3.3820   3.3984   3.4351   3.4415   3.4790
     3.5136   3.5387   3.6446   3.6673   3.6800   3.7211   3.7656   3.8069
     3.8188   3.8233   3.8526   3.8653   3.8953   3.9089   3.9292   3.9859
     3.9984   4.0210   4.0242   4.0516   4.0635   4.0672   4.1009   4.1348
     4.1585   4.1649   4.1878   4.1920   4.2578   4.2626   4.2644   4.2758
     4.3264   4.3718   4.4689   4.4875   4.4956   4.5344   4.5439   4.5612
     4.5684   4.6185   4.6693   4.6720   4.7175   4.7479   4.7571   4.7728
     4.7916   4.8208   4.9076   4.9278   4.9421   4.9474   5.0090   5.0171
     5.0351   5.0537   5.0855   5.1189   5.1598   5.1815   5.1832   5.2017
     5.2261   5.2466   5.3052   5.3307   5.3383   5.3493   5.3742   5.4316
     5.4455   5.4950   5.5242   5.5275   5.5520   5.5779   5.6043   5.6305
     5.6825   5.7126   5.7242   5.7351   5.7835   5.7902   5.8209   5.8409
     5.8498   5.8657   5.8924   5.8937   5.9182   5.9231   5.9365   5.9428
     5.9471   5.9797   5.9956   6.0045   6.0220   6.0346   6.0470   6.0595
     6.1050   6.1118   6.1374   6.1530   6.1660   6.1781   6.1947   6.2041
     6.2190   6.2248   6.2327   6.2549   6.2809   6.2905   6.3103   6.3239
     6.3397   6.3591   6.4020   6.4109   6.4339   6.4549   6.4573   6.4868
     6.5186   6.5428   6.5512   6.5610   6.6052   6.7524   6.8335   6.8496
     7.0249   7.0432   7.1384   7.3219   7.4502   7.5048   7.5591   7.6751
     7.7769   8.3175   8.3274   8.4069   8.5513   9.1957   9.2039   9.3500
     9.5608  10.0886  10.2360  10.4275  10.6502  10.9785  11.5649  11.6562
    11.7442  11.8666  12.2111  12.3797  12.5296  12.6837  12.7820  12.7868
    12.7925  13.1706  13.2654  13.6172  13.7549  13.7609  13.8819  13.9288
    14.1097  14.3746  14.5946  14.6727  14.6905  15.1271

          k = 0.3750 0.0481 0.0000 ( 27554 PWs)   bands (ev):

    -0.0846   0.2400   0.7140   1.0432   1.2720   1.2944   1.6525   1.7874
     2.0639   2.0744   2.1585   2.1598   2.1812   2.2210   2.3864   2.4493
     2.4967   2.5874   2.5949   2.6203   2.6956   2.7211   2.7239   2.7397
     2.7627   2.7938   2.8031   2.8652   2.9061   2.9331   2.9373   2.9947
     3.0233   3.0252   3.0848   3.1270   3.1437   3.1692   3.1889   3.2307
     3.2328   3.2595   3.2838   3.2873   3.2959   3.3240   3.3289   3.3630
     3.3984   3.4114   3.4520   3.4593   3.4711   3.4892   3.5049   3.5223
     3.5335   3.5777   3.5964   3.6613   3.6838   3.6932   3.7162   3.7227
     3.8375   3.8471   3.8619   3.8812   3.8854   3.9089   3.9337   3.9533
     3.9580   3.9929   4.0332   4.0459   4.0543   4.0973   4.1063   4.1105
     4.1486   4.1753   4.1977   4.2022   4.2036   4.2120   4.2585   4.2721
     4.2964   4.2983   4.3330   4.3421   4.3577   4.3788   4.4072   4.4400
     4.4510   4.4900   4.4993   4.5609   4.5975   4.6016   4.6045   4.6295
     4.6468   4.6524   4.6794   4.7168   4.7569   4.7934   4.8683   4.8996
     4.9234   4.9365   4.9393   4.9555   4.9784   5.0068   5.0097   5.0296
     5.0610   5.0615   5.0759   5.1055   5.1359   5.1588   5.1698   5.1785
     5.2167   5.2578   5.2644   5.2733   5.2990   5.3291   5.3529   5.3968
     5.4209   5.4285   5.4429   5.5061   5.5146   5.5437   5.5662   5.5882
     5.6050   5.6575   5.6681   5.7089   5.7091   5.7297   5.7328   5.7637
     5.8484   5.8936   5.9091   5.9290   5.9370   5.9462   5.9712   5.9954
     6.0271   6.0551   6.0586   6.0670   6.0907   6.1018   6.1184   6.1401
     6.1453   6.1463   6.1733   6.1741   6.1891   6.1924   6.2009   6.2299
     6.2433   6.2513   6.2739   6.3197   6.3240   6.3368   6.3376   6.4442
     6.4763   6.5417   6.5515   6.5972   6.6193   6.6485   6.7402   7.0978
     7.3596   7.7230   8.0549   8.5653   8.8095   9.2767   9.5098   9.6723
     9.8008   9.9116  10.1949  10.2084  10.3818  10.5683  10.5809  10.6072
    10.6578  10.9100  10.9661  11.0596  11.1384  11.2196  11.2813  11.4244
    11.5623  11.5724  12.0164  12.1813  12.2921  12.3727  12.4710  12.5364
    12.6539  12.9503  13.1358  13.1760  13.2720  13.4008  13.5095  13.5855
    13.7312  13.8722  14.1355  14.1415  14.3052  14.3868

          k = 0.3750 0.1443 0.0000 ( 27559 PWs)   bands (ev):

     0.0044   0.3250   0.7925   1.0802   1.3257   1.3421   1.6658   1.8475
     2.0489   2.1097   2.1636   2.2131   2.2387   2.2536   2.3834   2.3942
     2.4660   2.4960   2.5442   2.5709   2.6277   2.6865   2.6938   2.6985
     2.7138   2.7414   2.8054   2.8104   2.8461   2.9026   2.9283   2.9486
     2.9533   2.9806   3.0350   3.1121   3.1265   3.1753   3.2017   3.2080
     3.2349   3.2638   3.2754   3.2909   3.3120   3.3201   3.3510   3.3760
     3.3960   3.4610   3.4657   3.4970   3.5009   3.5233   3.5479   3.5583
     3.5744   3.5949   3.6157   3.6270   3.6425   3.7046   3.7156   3.7502
     3.8005   3.8460   3.8780   3.9003   3.9095   3.9452   3.9865   3.9929
     4.0212   4.0471   4.0535   4.0746   4.1280   4.1352   4.1463   4.1817
     4.1946   4.2021   4.2058   4.2241   4.2245   4.2449   4.2475   4.2794
     4.2949   4.2977   4.3100   4.3280   4.3704   4.4199   4.4334   4.4657
     4.4721   4.4945   4.5160   4.5331   4.5556   4.5600   4.5824   4.6105
     4.6374   4.7121   4.7130   4.7490   4.7766   4.7821   4.8315   4.8544
     4.8770   4.8856   4.9021   4.9028   4.9621   4.9689   5.0144   5.0194
     5.0315   5.0634   5.0749   5.1105   5.1148   5.1463   5.1734   5.1948
     5.2253   5.2441   5.2708   5.2728   5.2918   5.3453   5.3725   5.3929
     5.3929   5.4457   5.4518   5.4706   5.5041   5.5262   5.5527   5.5879
     5.5890   5.6047   5.6464   5.6509   5.7176   5.7269   5.7277   5.7617
     5.7741   5.8009   5.8266   5.8845   5.9274   5.9370   5.9416   5.9668
     6.0014   6.0283   6.0388   6.0795   6.0924   6.0943   6.1292   6.1489
     6.1548   6.1708   6.1745   6.1916   6.2291   6.2341   6.2524   6.2739
     6.2765   6.2854   6.2854   6.3389   6.3687   6.3805   6.4224   6.4777
     6.5273   6.5724   6.5895   6.6003   6.6483   6.7041   6.7420   7.1618
     7.3781   7.7973   8.0864   8.4807   8.6020   8.7207   8.8352   9.0297
     9.4787   9.5628   9.6508   9.8360   9.8732  10.2578  10.2717  10.6971
    10.7010  10.8767  11.0594  11.2481  11.2712  11.4514  11.5711  11.6654
    11.8489  11.9851  12.1167  12.1274  12.4326  12.4789  12.5552  12.6277
    12.7827  12.9147  13.1106  13.2724  13.4975  13.5646  13.5725  13.7530
    13.7951  13.8777  14.1437  14.1867  14.2641  14.5640

          k = 0.3750 0.2406 0.0000 ( 27548 PWs)   bands (ev):

     0.1800   0.4921   0.9458   1.1545   1.3917   1.4778   1.7012   1.9641
     2.0200   2.1547   2.2042   2.2802   2.2944   2.3163   2.3668   2.3736
     2.3876   2.4084   2.4555   2.4930   2.5720   2.5901   2.6243   2.6379
     2.6849   2.7158   2.7330   2.7774   2.7929   2.8307   2.8611   2.8953
     2.9054   2.9194   2.9699   3.0295   3.0753   3.0916   3.1113   3.1707
     3.2249   3.2428   3.2738   3.3062   3.3099   3.3467   3.3578   3.4080
     3.4367   3.4469   3.4731   3.5053   3.5071   3.5224   3.5375   3.5529
     3.6104   3.6175   3.6215   3.6307   3.6919   3.7139   3.7634   3.7922
     3.8146   3.8543   3.8711   3.9520   3.9725   3.9762   4.0053   4.0234
     4.0334   4.0745   4.0928   4.1115   4.1484   4.1539   4.1833   4.1911
     4.1989   4.2082   4.2186   4.2228   4.2242   4.2312   4.2647   4.2863
     4.3122   4.3322   4.3964   4.4059   4.4127   4.4399   4.4610   4.4753
     4.4990   4.5143   4.5478   4.5821   4.6008   4.6068   4.6215   4.6341
     4.6783   4.6852   4.6904   4.7177   4.7268   4.7345   4.7579   4.8188
     4.8335   4.8430   4.9153   4.9272   4.9279   4.9468   5.0153   5.0322
     5.0507   5.0739   5.0860   5.1557   5.1703   5.1871   5.2279   5.2300
     5.2379   5.2444   5.3035   5.3206   5.3269   5.3476   5.3555   5.3765
     5.3917   5.4105   5.4673   5.4717   5.4986   5.5063   5.5272   5.5292
     5.5581   5.5775   5.6214   5.6237   5.6395   5.6965   5.7146   5.7513
     5.7607   5.7907   5.7935   5.8620   5.8747   5.9154   5.9289   5.9556
     5.9743   6.0458   6.0525   6.0597   6.1059   6.1071   6.1493   6.1552
     6.1559   6.1728   6.2007   6.2031   6.2365   6.2515   6.2605   6.3052
     6.3347   6.3348   6.3638   6.3809   6.4070   6.4419   6.5014   6.5101
     6.5373   6.5976   6.6073   6.6348   6.6611   6.7706   6.7855   7.2823
     7.4281   7.8112   7.8946   7.9625   8.1447   8.2863   8.6162   8.7692
     8.8810   8.9238   9.0264   9.4170   9.4747   9.6858  10.0031  10.1180
    10.2789  10.6120  10.8934  10.9457  11.2046  11.3916  11.6990  11.9504
[...]
     7.7937   7.9447   8.2669   8.5444   8.6215   8.7744   9.2501   9.4288
     9.5953   9.6424  10.3043  10.4572  10.5648  10.6671  11.3055  11.5769
    11.8825  12.0314  12.7612  12.7967  13.0297  13.0913  13.1713  13.4149
    13.5984  13.8514  13.8967  13.9948  14.0613  14.1711  14.2963  14.5536
    14.6075  14.7764  14.8961  14.9748  15.1695  15.5315

          k = 0.4583 0.0481 0.0000 ( 27552 PWs)   bands (ev):

     0.2538   0.5641   0.6351   0.9224   1.0168   1.3387   1.5527   1.8328
     2.0560   2.3087   2.3100   2.3406   2.3826   2.4119   2.4265   2.4686
     2.5431   2.5557   2.5688   2.5742   2.6550   2.6701   2.6806   2.6981
     2.8072   2.8125   2.8194   2.8601   2.9480   2.9504   3.0087   3.0440
     3.0692   3.0727   3.1161   3.1428   3.1675   3.1910   3.2022   3.2319
     3.2453   3.2927   3.2935   3.3254   3.3334   3.3507   3.3553   3.3818
     3.4062   3.4067   3.4424   3.4478   3.4485   3.4634   3.4760   3.4872
     3.4975   3.5023   3.5360   3.5690   3.5971   3.6019   3.7116   3.7504
     3.7732   3.7862   3.8050   3.8358   3.8435   3.8765   3.9003   3.9647
     3.9676   3.9917   4.0264   4.0683   4.0733   4.0986   4.1421   4.1587
     4.1674   4.1907   4.2039   4.2057   4.2271   4.2358   4.2443   4.2701
     4.2780   4.2942   4.3385   4.3567   4.3839   4.3928   4.4266   4.4421
     4.4513   4.4934   4.5198   4.6062   4.6220   4.6325   4.6362   4.6630
     4.6917   4.6974   4.7375   4.7606   4.8276   4.8289   4.8402   4.8509
     4.8786   4.9094   4.9275   4.9413   4.9620   4.9724   4.9837   4.9989
     5.0376   5.0464   5.0631   5.0881   5.1354   5.1418   5.1604   5.1927
     5.2008   5.2245   5.2382   5.2385   5.2622   5.2688   5.2873   5.3538
     5.3789   5.3898   5.4139   5.4502   5.4520   5.4534   5.4895   5.5110
     5.5350   5.5426   5.5768   5.6225   5.6269   5.6566   5.6749   5.6970
     5.6997   5.7103   5.8074   5.8240   5.8545   5.8649   5.8963   5.9394
     5.9590   5.9805   5.9953   5.9985   6.0527   6.0657   6.0667   6.0702
     6.0968   6.1081   6.1424   6.1519   6.1622   6.1674   6.1960   6.2141
     6.2209   6.2211   6.2838   6.3228   6.3284   6.3744   6.3752   6.4056
     6.4345   6.5192   6.5604   6.5807   6.5843   6.5916   6.8274   7.0629
     7.3796   7.6910   8.0606   8.4151   8.9279   9.2889   9.5703   9.8606
     9.8719  10.0900  10.2071  10.3143  10.3641  10.4599  10.6742  10.7284
    10.7897  10.8917  11.0332  11.1307  11.2359  11.2823  11.5721  11.6063
    11.7216  11.7566  11.8985  11.9043  12.2254  12.4557  12.6017  12.7297
    12.8884  13.0226  13.0519  13.1578  13.2150  13.3387  13.4662  13.5776
    13.8357  13.8834  13.8891  13.9141  14.4032  14.4102

          k = 0.4583 0.1443 0.0000 ( 27583 PWs)   bands (ev):

     0.3333   0.6379   0.6988   0.9788   1.0803   1.3800   1.6002   1.8465
     2.0786   2.2715   2.3061   2.3591   2.3683   2.4335   2.4614   2.4715
     2.4807   2.4998   2.5455   2.5733   2.6220   2.6594   2.6747   2.7227
     2.7802   2.7973   2.8115   2.8596   2.8874   2.9323   2.9383   2.9790
     3.0143   3.0692   3.0796   3.1258   3.1603   3.2007   3.2246   3.2393
     3.2676   3.2741   3.2746   3.3282   3.3344   3.3392   3.3674   3.3840
     3.4119   3.4218   3.4348   3.4617   3.4699   3.4764   3.4959   3.5087
     3.5316   3.5512   3.5685   3.5878   3.6230   3.6749   3.6998   3.7511
     3.7707   3.8156   3.8535   3.8763   3.8973   3.9149   3.9590   3.9936
     3.9947   4.0248   4.0547   4.0723   4.0728   4.1352   4.1455   4.1607
     4.1761   4.2031   4.2062   4.2131   4.2228   4.2261   4.2458   4.2464
     4.2669   4.2777   4.2986   4.3179   4.3304   4.3700   4.3805   4.4643
     4.4659   4.4882   4.5755   4.5984   4.6137   4.6408   4.6535   4.6600
     4.6838   4.6984   4.7193   4.7419   4.7757   4.8451   4.8509   4.8596
     4.8665   4.8749   4.8995   4.9256   4.9486   4.9865   4.9893   5.0080
     5.0354   5.0418   5.0659   5.1150   5.1158   5.1303   5.1488   5.1941
     5.2023   5.2106   5.2263   5.2341   5.2418   5.2610   5.2913   5.3205
     5.3304   5.3401   5.4081   5.4192   5.4284   5.4375   5.4489   5.4959
     5.5210   5.5355   5.5456   5.5984   5.6214   5.6316   5.6741   5.6910
     5.7056   5.7214   5.7449   5.7720   5.7856   5.8188   5.8355   5.9136
     5.9462   5.9554   5.9821   6.0101   6.0161   6.0246   6.0916   6.1035
     6.1078   6.1128   6.1451   6.1620   6.2050   6.2051   6.2600   6.2751
     6.2831   6.2972   6.3195   6.3648   6.3788   6.3890   6.4470   6.4601
     6.4983   6.5167   6.5992   6.6189   6.6297   6.6424   6.8541   7.0846
     7.4300   7.7310   8.1139   8.4528   8.7955   8.9361   9.0778   9.1199
     9.2792   9.4350   9.4445   9.8411  10.0121  10.1377  10.4071  10.4494
    10.7169  11.1101  11.2247  11.3203  11.4991  11.5990  11.7603  11.7672
    11.8740  12.0288  12.1876  12.2589  12.3867  12.6147  12.7647  12.7787
    12.9157  13.1303  13.1928  13.2288  13.3037  13.4525  13.6132  13.7424
    13.8656  14.0069  14.0385  14.1443  14.3440  14.4559

          k = 0.4583 0.2406 0.0000 ( 27580 PWs)   bands (ev):

     0.4901   0.7834   0.8245   1.0910   1.2051   1.4638   1.6938   1.8813
     2.1292   2.2343   2.3295   2.3450   2.3766   2.4123   2.4232   2.4283
     2.4838   2.5136   2.5648   2.5801   2.5881   2.5983   2.6208   2.7150
     2.7268   2.7431   2.7810   2.8148   2.8345   2.8555   2.8596   2.9374
     2.9569   3.0113   3.0805   3.0828   3.1308   3.1430   3.1965   3.2090
     3.2250   3.2283   3.2674   3.3245   3.3292   3.3733   3.3733   3.4096
     3.4348   3.4390   3.4732   3.4749   3.4962   3.5150   3.5382   3.5580
     3.5710   3.5765   3.6017   3.6253   3.6620   3.6962   3.7210   3.7344
     3.7458   3.7904   3.8493   3.9044   3.9165   3.9308   3.9784   3.9924
     4.0283   4.0391   4.0912   4.0968   4.1142   4.1296   4.1639   4.1649
     4.1782   4.1812   4.1995   4.2102   4.2187   4.2317   4.2374   4.2503
     4.2579   4.2678   4.2827   4.3280   4.3560   4.3720   4.4267   4.4296
     4.4626   4.4631   4.5660   4.5769   4.5908   4.6077   4.6522   4.6668
     4.6845   4.7037   4.7456   4.7789   4.7973   4.8281   4.8300   4.8586
     4.8859   4.8884   4.8946   4.9464   4.9648   4.9813   5.0146   5.0228
     5.0424   5.0587   5.0733   5.1335   5.1352   5.1486   5.1611   5.1618
     5.2044   5.2070   5.2284   5.2392   5.2425   5.2462   5.2835   5.3118
     5.3446   5.3554   5.3951   5.3985   5.4318   5.4341   5.4560   5.4743
     5.4744   5.5320   5.5358   5.5643   5.5678   5.6215   5.6447   5.6471
     5.6856   5.7427   5.7490   5.7625   5.7723   5.7979   5.8323   5.8761
     5.9103   5.9461   5.9684   5.9769   6.0560   6.0732   6.0886   6.1067
     6.1073   6.1398   6.1571   6.1650   6.2137   6.2188   6.3309   6.3374
     6.3622   6.3650   6.3833   6.3850   6.4162   6.4526   6.4783   6.5014
     6.5364   6.5481   6.6345   6.6368   6.6815   6.6915   6.9339   7.1467
     7.5252   7.8059   8.1133   8.1924   8.2980   8.4240   8.5149   8.6488
     8.6701   8.9664   9.0637   9.2984   9.3145   9.6972   9.8240  10.2244
    10.2643  10.5520  10.6808  11.0861  11.4508  11.5487  11.8309  12.0006
    12.2786  12.3561  12.7415  12.7791  12.8933  12.9050  13.0224  13.0936
    13.2491  13.2948  13.4404  13.4715  13.5235  13.7597  13.8163  13.9337
    14.0488  14.1274  14.1620  14.2430  14.5573  14.6069

          k = 0.4583 0.3368 0.0000 ( 27527 PWs)   bands (ev):

     0.7196   0.9952   1.0080   1.2570   1.3854   1.5912   1.8291   1.9455
     2.2125   2.2303   2.2907   2.3020   2.3255   2.3581   2.3992   2.4064
     2.4264   2.4604   2.4858   2.5377   2.5757   2.5986   2.6352   2.6614
     2.6942   2.7166   2.7451   2.7602   2.7758   2.8067   2.8371   2.8610
     2.9118   2.9197   3.0220   3.0566   3.0676   3.0852   3.1109   3.1802
     3.1989   3.2124   3.2233   3.2629   3.3166   3.3476   3.3607   3.3759
     3.4138   3.4389   3.4644   3.4861   3.5062   3.5187   3.5390   3.5920
     3.5983   3.6211   3.6244   3.6260   3.6934   3.7152   3.7189   3.7305
     3.7770   3.8107   3.8253   3.8557   3.8751   3.9226   3.9246   4.0057
     4.0126   4.0392   4.0686   4.0858   4.0979   4.1202   4.1351   4.1425
     4.1624   4.1711   4.1971   4.1987   4.1998   4.2141   4.2309   4.2317
     4.2388   4.2784   4.3153   4.3446   4.3626   4.3895   4.4066   4.4344
     4.4842   4.4910   4.5223   4.5406   4.5499   4.6397   4.6476   4.6859
     4.6992   4.7446   4.7649   4.8058   4.8114   4.8234   4.8722   4.8738
     4.8799   4.9184   4.9534   4.9912   4.9930   5.0341   5.0607   5.0783
     5.0865   5.1212   5.1513   5.1554   5.1854   5.1901   5.1908   5.2221
     5.2321   5.2586   5.2646   5.2886   5.3159   5.3274   5.3310   5.3762
     5.3806   5.3952   5.4130   5.4459   5.4575   5.4592   5.4949   5.5089
     5.5185   5.5553   5.5769   5.5935   5.6045   5.6450   5.6578   5.6787
     5.7121   5.7296   5.7690   5.7761   5.8070   5.8105   5.8580   5.8596
     5.9019   5.9466   5.9578   5.9627   6.0525   6.0729   6.1078   6.1225
     6.1390   6.1497   6.1817   6.1855   6.2333   6.2467   6.2975   6.3453
     6.3764   6.3865   6.3943   6.4091   6.4484   6.4778   6.4779   6.5172
     6.5465   6.5652   6.6057   6.6370   6.6968   6.7462   7.0625   7.2574
     7.5293   7.5832   7.6861   7.8155   7.8492   7.8703   8.0011   8.2136
     8.3493   8.4064   8.6485   8.7881   9.1463   9.2311   9.4962   9.5761
    10.0039  10.2981  10.3937  10.5644  10.9348  11.2965  11.6654  11.9311
    12.0633  12.3150  12.8732  13.1006  13.1794  13.2272  13.2592  13.3789
    13.5039  13.7658  13.9332  13.9393  14.0263  14.0698  14.2309  14.3225
    14.3738  14.4011  14.4229  14.7685  14.9188  14.9208

          k = 0.4583 0.4330 0.0000 ( 27524 PWs)   bands (ev):

     1.0132   1.2412   1.2640   1.4720   1.6100   1.7608   1.9944   2.0411
     2.0651   2.0843   2.1754   2.2537   2.2539   2.2722   2.2974   2.3272
     2.4027   2.4253   2.4503   2.5020   2.5440   2.5949   2.5974   2.6771
     2.6811   2.6945   2.7599   2.7748   2.7762   2.8074   2.8325   2.8378
     2.8538   2.8696   2.9300   2.9463   2.9961   3.0356   3.0823   3.0844
     3.1369   3.1783   3.1825   3.2422   3.2740   3.3072   3.3116   3.3143
     3.3603   3.3846   3.4238   3.4608   3.4792   3.5336   3.5473   3.5556
     3.6221   3.6272   3.6412   3.6611   3.6914   3.7078   3.7385   3.7627
     3.7794   3.8159   3.8362   3.8387   3.8623   3.8701   3.9443   3.9453
     3.9551   3.9988   4.0081   4.0266   4.0819   4.1114   4.1158   4.1402
     4.1462   4.1517   4.1687   4.1854   4.1981   4.2164   4.2289   4.2326
     4.2763   4.2880   4.2984   4.3105   4.3689   4.3804   4.3887   4.4332
     4.4537   4.4719   4.4946   4.5212   4.5234   4.6014   4.6546   4.6770
     4.7063   4.7096   4.7589   4.7696   4.8297   4.8758   4.9085   4.9276
     4.9633   4.9655   4.9924   5.0060   5.0293   5.0719   5.0993   5.1463
     5.1482   5.1583   5.1953   5.2237   5.2458   5.2524   5.2833   5.3124
     5.3243   5.3284   5.3554   5.3615   5.3865   5.4120   5.4258   5.4269
     5.4771   5.4822   5.5097   5.5523   5.5848   5.5928   5.6082   5.6324
     5.6363   5.6381   5.6647   5.6934   5.6941   5.7355   5.7454   5.7680
     5.7736   5.7966   5.8218   5.8689   5.8718   5.9256   5.9280   5.9435
     5.9475   5.9748   5.9819   6.0273   6.0326   6.0713   6.1342   6.1594
     6.1761   6.1902   6.2046   6.2079   6.2162   6.2564   6.2817   6.2864
     6.2970   6.3425   6.3543   6.3946   6.4001   6.4536   6.4612   6.4890
     6.4932   6.5402   6.5431   6.6068   6.7424   6.8478   6.9993   7.0641
     7.1194   7.2421   7.3239   7.3244   7.3414   7.5134   7.5805   7.8220
     8.0152   8.2147   8.2560   8.5499   8.8000   9.0921   9.1200   9.4481
     9.6587   9.9825  10.1753  10.4914  10.6179  10.9127  11.3089  11.6358
    12.0816  12.4922  12.5806  12.9110  13.0215  13.2738  13.4210  13.6770
    13.7510  14.1162  14.1999  14.2532  14.4669  14.6097  14.6716  14.7227
    14.8916  15.0059  15.1059  15.1956  15.2980  15.3972

          k = 0.4583 0.5292 0.0000 ( 27488 PWs)   bands (ev):

     1.3568   1.5100   1.5733   1.7261   1.7270   1.7935   1.8571   1.8950
     1.9649   1.9991   2.0883   2.1578   2.1665   2.1764   2.2776   2.3046
     2.3495   2.4502   2.4523   2.5109   2.5580   2.5813   2.5934   2.6144
     2.6541   2.7198   2.7200   2.7477   2.7782   2.7939   2.8126   2.8509
     2.8555   2.8986   2.9209   2.9295   2.9842   2.9975   3.0238   3.0593
     3.0934   3.1200   3.1380   3.2088   3.2373   3.2817   3.2843   3.3002
     3.3263   3.3366   3.4167   3.4277   3.4632   3.4789   3.5267   3.5334
     3.5802   3.6090   3.6326   3.6480   3.6791   3.7092   3.7495   3.7620
     3.7760   3.8140   3.8189   3.8735   3.8738   3.9207   3.9328   3.9342
     3.9836   3.9865   4.0058   4.0218   4.0522   4.0646   4.1050   4.1141
     4.1298   4.1569   4.1664   4.1755   4.1786   4.1941   4.2151   4.2566
     4.2612   4.2654   4.2961   4.3224   4.3594   4.3696   4.3790   4.3996
     4.4013   4.4514   4.5084   4.5382   4.5484   4.5688   4.5790   4.6450
     4.6872   4.7210   4.7489   4.8254   4.8422   4.9100   4.9106   4.9353
     4.9564   4.9729   5.0192   5.0298   5.0565   5.0695   5.1385   5.1520
     5.1817   5.2160   5.2316   5.2497   5.2650   5.2854   5.2992   5.3199
     5.3219   5.3521   5.4060   5.4167   5.4186   5.4241   5.4783   5.5470
     5.5556   5.5768   5.6000   5.6589   5.6605   5.6758   5.7093   5.7245
     5.7286   5.7469   5.7607   5.8049   5.8212   5.8667   5.8823   5.8888
     5.9164   5.9405   5.9426   5.9573   5.9824   6.0109   6.0283   6.0515
     6.0724   6.0858   6.1009   6.1222   6.1292   6.1542   6.1697   6.1781
     6.2138   6.2348   6.2390   6.2596   6.2740   6.2766   6.2825   6.2944
     6.3192   6.3459   6.3472   6.3794   6.3879   6.3961   6.4043   6.4091
     6.4632   6.4699   6.4866   6.5290   6.5939   6.6047   6.6688   6.7172
     6.7854   6.7993   6.8683   6.9978   7.1344   7.2655   7.3379   7.6220
     7.8919   8.0544   8.0794   8.4061   8.7453   8.9184   8.9782   9.2563
     9.6859   9.8789   9.9775  10.2000  10.7058  10.9388  10.9853  11.2424
    12.2159  12.3718  12.5404  12.7432  13.0807  13.3230  13.4682  13.8428
    14.1443  14.1702  14.2823  14.5547  14.6908  14.8476  14.9129  14.9382
    15.0340  15.1251  15.2612  15.3227  15.3593  15.5083

     the Fermi energy is     8.2690 ev

!    total energy              =   -3673.17834911 Ry
     estimated scf accuracy    <       0.00000050 Ry
     smearing contrib. (-TS)   =       0.04736707 Ry
     internal energy E=F+TS    =   -3673.22571618 Ry

     The total energy is F=E-TS. E is the sum of the following terms:
     one-electron contribution =  -16949.52962726 Ry
     hartree contribution      =    8849.09199578 Ry
     xc contribution           =   -1775.50409552 Ry
     ewald contribution        =    6202.71601081 Ry

     convergence has been achieved in  21 iterations

     negative rho (up, down):  9.786E-01 0.000E+00

     Forces acting on atoms (cartesian axes, Ry/au):

     atom    1 type  1   force =     0.00000000   -0.00165120    0.02685520
     atom    2 type  1   force =     0.00000000   -0.00165131    0.02685563
     atom    3 type  1   force =     0.00000008    0.00335354   -0.01636816
     atom    4 type  1   force =    -0.00000008    0.00335354   -0.01636816
     atom    5 type  1   force =     0.00000000   -0.00159859   -0.00945372
     atom    6 type  1   force =     0.00000000   -0.00159853   -0.00945384
     atom    7 type  1   force =     0.00000000    0.00056095   -0.00371327
     atom    8 type  1   force =     0.00000000    0.00056100   -0.00371328
     atom    9 type  1   force =    -0.00000001   -0.00053462    0.00470269
     atom   10 type  1   force =     0.00000001   -0.00053462    0.00470269
     atom   11 type  1   force =     0.00000000    0.00028550   -0.00067243
     atom   12 type  1   force =     0.00000000    0.00028538   -0.00067241
     atom   13 type  1   force =    -0.00000000   -0.00045287   -0.00044364
     atom   14 type  1   force =     0.00000000   -0.00045287   -0.00044364
     atom   15 type  1   force =     0.00000000    0.00019732   -0.00053534
     atom   16 type  1   force =     0.00000005   -0.00018619    0.00043706
     atom   17 type  1   force =    -0.00000005   -0.00018619    0.00043706
     atom   18 type  1   force =     0.00000000    0.00019733   -0.00053533
     atom   19 type  1   force =     0.00000000    0.00018814   -0.00043989
     atom   20 type  1   force =     0.00000000    0.00018803   -0.00043996
     atom   21 type  1   force =     0.00000001   -0.00019684    0.00053449
     atom   22 type  1   force =    -0.00000001   -0.00019684    0.00053449
     atom   23 type  1   force =     0.00000000    0.00045370    0.00044826
     atom   24 type  1   force =     0.00000000    0.00045365    0.00044833
     atom   25 type  1   force =     0.00000004   -0.00028477    0.00067493
     atom   26 type  1   force =    -0.00000004   -0.00028477    0.00067493
     atom   27 type  1   force =     0.00000003   -0.00056025    0.00370562
     atom   28 type  1   force =    -0.00000003   -0.00056025    0.00370562
     atom   29 type  1   force =     0.00000000    0.00053555   -0.00470743
     atom   30 type  1   force =     0.00000000    0.00053553   -0.00470742
     atom   31 type  1   force =     0.00000000   -0.00335179    0.01636572
     atom   32 type  1   force =     0.00000000   -0.00335180    0.01636559
     atom   33 type  1   force =    -0.00000003    0.00159674    0.00945225
     atom   34 type  1   force =     0.00000003    0.00159674    0.00945225
     atom   35 type  1   force =     0.00000025    0.00164585   -0.02684244
     atom   36 type  1   force =    -0.00000025    0.00164585   -0.02684244

     Total force =     0.067308     Total SCF correction =     0.004189
 
     init_run     :     45.47s CPU      6.51s WALL (       1 calls)
     electrons    :   2445.25s CPU    322.84s WALL (       1 calls)
     forces       :     12.86s CPU      1.65s WALL (       1 calls)

     Called by init_run:
     wfcinit      :     43.63s CPU      5.89s WALL (       1 calls)
     potinit      :      0.59s CPU      0.10s WALL (       1 calls)
     hinit0       :      0.83s CPU      0.25s WALL (       1 calls)

     Called by electrons:
     c_bands      :   2175.46s CPU    287.64s WALL (      22 calls)
     sum_band     :    256.99s CPU     33.41s WALL (      22 calls)
     v_of_rho     :      5.73s CPU      0.78s WALL (      22 calls)
     newd         :      4.59s CPU      0.73s WALL (      22 calls)
     mix_rho      :      1.56s CPU      0.20s WALL (      22 calls)

     Called by c_bands:
     init_us_2    :      7.54s CPU      1.02s WALL (     828 calls)
     cegterg      :   1974.40s CPU    251.98s WALL (     396 calls)

     Called by *egterg:
     cdiaghg      :    727.90s CPU     92.74s WALL (    2219 calls)
     h_psi        :    931.37s CPU    119.19s WALL (    2255 calls)
     s_psi        :     52.60s CPU      6.63s WALL (    2255 calls)
     g_psi        :      1.35s CPU      0.17s WALL (    1841 calls)

     Called by h_psi:
     h_psi:calbec :     93.32s CPU     11.89s WALL (    2255 calls)
     vloc_psi     :    779.15s CPU     99.81s WALL (    2255 calls)
     add_vuspsi   :     55.62s CPU      7.04s WALL (    2255 calls)

     General routines
     calbec       :    139.03s CPU     17.70s WALL (    2723 calls)
     fft          :      3.34s CPU      0.47s WALL (     296 calls)
     ffts         :      0.27s CPU      0.04s WALL (      44 calls)
     fftw         :    909.46s CPU    115.46s WALL (  515872 calls)
     interpolate  :      0.38s CPU      0.05s WALL (      22 calls)
 
     Parallel routines
     fft_scatt_xy :     62.67s CPU      9.10s WALL (  516212 calls)
     fft_scatt_yz :    485.32s CPU     62.51s WALL (  516212 calls)
 
     PWSCF        :  41m44.67s CPU   5m31.25s WALL

 
   This run was terminated on:   4:18:54   8Sep2021            

=------------------------------------------------------------------------------=
   JOB DONE.
=------------------------------------------------------------------------------=
