
     Program PWSCF v.6.6 starts on 20Sep2021 at 19:49:47 

     This program is part of the open-source Quantum ESPRESSO suite
     for quantum simulation of materials; please cite
         "P. Giannozzi et al., J. Phys.:Condens. Matter 21 395502 (2009);
         "P. Giannozzi et al., J. Phys.:Condens. Matter 29 465901 (2017);
          URL http://www.quantum-espresso.org", 
     in publications or presentations arising from this work. More details at
     http://www.quantum-espresso.org/quote

     Parallel version (MPI & OpenMP), running on     768 processor cores
     Number of MPI processes:                96
     Threads/MPI process:                     8

     MPI processes distributed on    16 nodes
     K-points division:     npool     =       8
     R & G space division:  proc/nbgrp/npool/nimage =      12
     Fft bands division:     nmany     =       1
     Reading input from ../inputs/input_ausurf_432

     Current dimensions of program PWSCF are:
     Max number of different atomic species (ntypx) = 10
     Max number of k-points (npk) =  40000
     Max angular momentum in pseudopotentials (lmaxx) =  3

     Subspace diagonalization in iterative solution of the eigenvalue problem:
     one sub-group per band group will be used
     ELPA distributed-memory algorithm (size of sub-group:  3*  3 procs)

     Found symmetry operation: I + (  0.1667  0.0000  0.0000)
     This is a supercell, fractional translations are disabled
     Message from routine divide_et_impera:
     suboptimal parallelization: some nodes have no k-points
 
     Parallelization info
     --------------------
     sticks:   dense  smooth     PW     G-vecs:    dense   smooth      PW
     Min        2997    1370    352               712549   220252   28766
     Max        2998    1371    353               712554   220261   28773
     Sum       35971   16449   4235              8550627  2643085  345261
 

     Title: 
      Ausurf                                                                    


     bravais-lattice index     =            8
     lattice parameter (alat)  =      33.4482  a.u.
     unit-cell volume          =   77333.9228 (a.u.)^3
     number of atoms/cell      =          432
     number of atomic types    =            1
     number of electrons       =      4752.00
     number of Kohn-Sham states=         2851
     kinetic-energy cutoff     =      40.0000  Ry
     charge density cutoff     =     350.0000  Ry
     convergence threshold     =      1.0E-06
     mixing beta               =       0.7000
     number of iterations used =            8  TF        mixing
     Exchange-correlation=  SLA  PW   PBE  PBE
                           (   1   4   3   4   0   0   0)

     celldm(1)=  33.448152  celldm(2)=   1.154701  celldm(3)=   1.789717
     celldm(4)=   0.000000  celldm(5)=   0.000000  celldm(6)=   0.000000

     crystal axes: (cart. coord. in units of alat)
               a(1) = (   1.000000   0.000000   0.000000 )  
               a(2) = (   0.000000   1.154701   0.000000 )  
               a(3) = (   0.000000   0.000000   1.789717 )  

     reciprocal axes: (cart. coord. in units 2 pi/alat)
               b(1) = (  1.000000  0.000000  0.000000 )  
               b(2) = (  0.000000  0.866025  0.000000 )  
               b(3) = (  0.000000  0.000000  0.558748 )  


     PseudoPot. # 1 for Au read from file:
     /marconi/home/userexternal/czeni000/dft_src/pseudo/Au.pbe-nd-van.UPF
     MD5 check sum: deb5c07af10777505a79e28f5b4b4115
     Pseudo is Ultrasoft + core correction, Zval = 11.0
     Generated by new atomic code, or converted to UPF format
     Using radial grid of  985 points,  3 beta functions with: 
                l(1) =   1
                l(2) =   2
                l(3) =   2
     Q(r) pseudized with  8 coefficients,  rinner =    1.100   1.100   1.100
                                                       1.100   1.100

     atomic species   valence    mass     pseudopotential
        Au            11.00   196.96000     Au( 1.00)

      2 Sym. Ops. (no inversion) found



   Cartesian axes

     site n.     atom                  positions (alat units)
         1           Au  tau(   1) = (   0.0000000   0.0000000   0.0000000  )
         2           Au  tau(   2) = (   0.1666667   0.0000000   0.0000000  )
         3           Au  tau(   3) = (   0.3333333   0.0000000   0.0000000  )
         4           Au  tau(   4) = (   0.0000000   0.2886751   0.0000000  )
         5           Au  tau(   5) = (   0.5000000   0.0000000   0.0000000  )
         6           Au  tau(   6) = (   0.1666667   0.2886751   0.0000000  )
         7           Au  tau(   7) = (   0.6666667   0.0000000   0.0000000  )
         8           Au  tau(   8) = (   0.3333333   0.2886751   0.0000000  )
         9           Au  tau(   9) = (   0.8333333   0.0000000   0.0000000  )
        10           Au  tau(  10) = (   0.0000000   0.5773503   0.0000000  )
        11           Au  tau(  11) = (   0.5000000   0.2886751   0.0000000  )
        12           Au  tau(  12) = (   0.1666667   0.5773503   0.0000000  )
        13           Au  tau(  13) = (   0.6666667   0.2886751   0.0000000  )
        14           Au  tau(  14) = (   0.3333333   0.5773503   0.0000000  )
        15           Au  tau(  15) = (   0.8333333   0.2886751   0.0000000  )
        16           Au  tau(  16) = (   0.0000000   0.8660254   0.0000000  )
        17           Au  tau(  17) = (   0.5000000   0.5773503   0.0000000  )
        18           Au  tau(  18) = (   0.1666667   0.8660254   0.0000000  )
        19           Au  tau(  19) = (   0.6666667   0.5773503   0.0000000  )
        20           Au  tau(  20) = (   0.3333333   0.8660254   0.0000000  )
        21           Au  tau(  21) = (   0.8333333   0.5773503   0.0000000  )
        22           Au  tau(  22) = (   0.5000000   0.8660254   0.0000000  )
        23           Au  tau(  23) = (   0.6666667   0.8660254   0.0000000  )
        24           Au  tau(  24) = (   0.8333333   0.8660254   0.0000000  )
        25           Au  tau(  25) = (   0.0833333   0.0481125   0.1360828  )
        26           Au  tau(  26) = (   0.2500000   0.0481125   0.1360828  )
        27           Au  tau(  27) = (   0.4166667   0.0481125   0.1360828  )
        28           Au  tau(  28) = (   0.0833333   0.3367877   0.1360828  )
        29           Au  tau(  29) = (   0.4166667   0.3367877   0.1360828  )
        30           Au  tau(  30) = (   0.5833333   0.0481125   0.1360828  )
        31           Au  tau(  31) = (   0.9166667   0.0481125   0.1360828  )
        32           Au  tau(  32) = (   0.0833333   0.6254628   0.1360828  )
        33           Au  tau(  33) = (   0.2500000   0.3367877   0.1360828  )
        34           Au  tau(  34) = (   0.2500000   0.6254628   0.1360828  )
        35           Au  tau(  35) = (   0.5833333   0.3367877   0.1360828  )
        36           Au  tau(  36) = (   0.7500000   0.0481125   0.1360828  )
        37           Au  tau(  37) = (   0.7500000   0.3367877   0.1360828  )
        38           Au  tau(  38) = (   0.1666667   0.1924501   0.1360828  )
        39           Au  tau(  39) = (   0.1666667   0.4811252   0.1360828  )
        40           Au  tau(  40) = (   0.6666667   0.1924501   0.1360828  )
        41           Au  tau(  41) = (   0.2500000   0.9141379   0.1360828  )
        42           Au  tau(  42) = (   0.4166667   0.6254628   0.1360828  )
        43           Au  tau(  43) = (   0.7500000   0.6254628   0.1360828  )
        44           Au  tau(  44) = (   0.9166667   0.3367877   0.1360828  )
        45           Au  tau(  45) = (   0.3333333   0.1924501   0.1360828  )
        46           Au  tau(  46) = (   0.5000000   0.1924501   0.1360828  )
        47           Au  tau(  47) = (   0.0833333   0.9141379   0.1360828  )
        48           Au  tau(  48) = (   0.4166667   0.9141379   0.1360828  )
        49           Au  tau(  49) = (   0.5833333   0.6254628   0.1360828  )
        50           Au  tau(  50) = (   0.5833333   0.9141379   0.1360828  )
        51           Au  tau(  51) = (   0.9166667   0.6254628   0.1360828  )
        52           Au  tau(  52) = (   0.3333333   0.4811252   0.1360828  )
        53           Au  tau(  53) = (   0.5000000   0.4811252   0.1360828  )
        54           Au  tau(  54) = (   0.5000000   0.7698003   0.1360828  )
        55           Au  tau(  55) = (   0.8333333   0.1924501   0.1360828  )
        56           Au  tau(  56) = (   1.0000000   0.1924501   0.1360828  )
        57           Au  tau(  57) = (   1.0000000   0.4811252   0.1360828  )
        58           Au  tau(  58) = (   0.7500000   0.9141379   0.1360828  )
        59           Au  tau(  59) = (   0.1666667   0.7698003   0.1360828  )
        60           Au  tau(  60) = (   0.3333333   0.7698003   0.1360828  )
        61           Au  tau(  61) = (   0.6666667   0.4811252   0.1360828  )
        62           Au  tau(  62) = (   0.8333333   0.4811252   0.1360828  )
        63           Au  tau(  63) = (   0.9166667   0.9141379   0.1360828  )
        64           Au  tau(  64) = (   0.1666667   1.0584755   0.1360828  )
        65           Au  tau(  65) = (   0.3333333   1.0584755   0.1360828  )
        66           Au  tau(  66) = (   0.6666667   0.7698003   0.1360828  )
        67           Au  tau(  67) = (   0.8333333   0.7698003   0.1360828  )
        68           Au  tau(  68) = (   0.5000000   1.0584755   0.1360828  )
        69           Au  tau(  69) = (   0.6666667   1.0584755   0.1360828  )
        70           Au  tau(  70) = (   0.8333333   1.0584755   0.1360828  )
        71           Au  tau(  71) = (   1.0000000   0.7698003   0.1360828  )
        72           Au  tau(  72) = (   1.0000000   1.0584755   0.1360828  )
        73           Au  tau(  73) = (   0.1666667   0.0962250   0.2721655  )
        74           Au  tau(  74) = (   0.4166667   0.2405626   0.2721655  )
        75           Au  tau(  75) = (   0.3333333   0.0962250   0.2721655  )
        76           Au  tau(  76) = (   0.5000000   0.0962250   0.2721655  )
        77           Au  tau(  77) = (   0.0833333   0.2405626   0.2721655  )
        78           Au  tau(  78) = (   0.2500000   0.2405626   0.2721655  )
        79           Au  tau(  79) = (   0.1666667   0.3849002   0.2721655  )
        80           Au  tau(  80) = (   0.3333333   0.3849002   0.2721655  )
        81           Au  tau(  81) = (   0.3333333   0.6735753   0.2721655  )
        82           Au  tau(  82) = (   0.3333333   0.9622505   0.2721655  )
        83           Au  tau(  83) = (   0.5000000   0.3849002   0.2721655  )
        84           Au  tau(  84) = (   0.6666667   0.0962250   0.2721655  )
        85           Au  tau(  85) = (   0.8333333   0.0962250   0.2721655  )
        86           Au  tau(  86) = (   0.8333333   0.3849002   0.2721655  )
        87           Au  tau(  87) = (   0.8333333   0.6735753   0.2721655  )
        88           Au  tau(  88) = (   1.0000000   0.0962250   0.2721655  )
        89           Au  tau(  89) = (   0.0833333   0.5292377   0.2721655  )
        90           Au  tau(  90) = (   0.0833333   0.8179129   0.2721655  )
        91           Au  tau(  91) = (   0.0833333   1.1065880   0.2721655  )
        92           Au  tau(  92) = (   0.2500000   0.5292377   0.2721655  )
        93           Au  tau(  93) = (   0.2500000   0.8179129   0.2721655  )
        94           Au  tau(  94) = (   0.5833333   0.2405626   0.2721655  )
        95           Au  tau(  95) = (   0.5833333   0.5292377   0.2721655  )
        96           Au  tau(  96) = (   0.5833333   0.8179129   0.2721655  )
        97           Au  tau(  97) = (   0.5833333   1.1065880   0.2721655  )
        98           Au  tau(  98) = (   0.7500000   0.2405626   0.2721655  )
        99           Au  tau(  99) = (   0.7500000   0.5292377   0.2721655  )
       100           Au  tau( 100) = (   0.1666667   0.6735753   0.2721655  )
       101           Au  tau( 101) = (   0.1666667   0.9622505   0.2721655  )
       102           Au  tau( 102) = (   0.5000000   0.6735753   0.2721655  )
       103           Au  tau( 103) = (   0.5000000   0.9622505   0.2721655  )
       104           Au  tau( 104) = (   0.6666667   0.3849002   0.2721655  )
       105           Au  tau( 105) = (   0.6666667   0.6735753   0.2721655  )
       106           Au  tau( 106) = (   0.6666667   0.9622505   0.2721655  )
       107           Au  tau( 107) = (   1.0000000   0.3849002   0.2721655  )
       108           Au  tau( 108) = (   1.0000000   0.6735753   0.2721655  )
       109           Au  tau( 109) = (   0.2500000   1.1065880   0.2721655  )
       110           Au  tau( 110) = (   0.4166667   0.5292377   0.2721655  )
       111           Au  tau( 111) = (   0.4166667   0.8179129   0.2721655  )
       112           Au  tau( 112) = (   0.4166667   1.1065880   0.2721655  )
       113           Au  tau( 113) = (   0.7500000   0.8179129   0.2721655  )
       114           Au  tau( 114) = (   0.9166667   0.2405626   0.2721655  )
       115           Au  tau( 115) = (   0.9166667   0.5292377   0.2721655  )
       116           Au  tau( 116) = (   0.9166667   0.8179129   0.2721655  )
       117           Au  tau( 117) = (   0.8333333   0.9622505   0.2721655  )
       118           Au  tau( 118) = (   1.0000000   0.9622505   0.2721655  )
       119           Au  tau( 119) = (   0.7500000   1.1065880   0.2721655  )
       120           Au  tau( 120) = (   0.9166667   1.1065880   0.2721655  )
       121           Au  tau( 121) = (   0.4166667   0.1443376   0.4082483  )
       122           Au  tau( 122) = (   0.0000000   0.0000000   0.4082483  )
       123           Au  tau( 123) = (   0.1666667   0.0000000   0.4082483  )
       124           Au  tau( 124) = (   0.3333333   0.0000000   0.4082483  )
       125           Au  tau( 125) = (   0.0833333   0.1443376   0.4082483  )
       126           Au  tau( 126) = (   0.0000000   0.5773503   0.4082483  )
       127           Au  tau( 127) = (   0.1666667   0.2886751   0.4082483  )
       128           Au  tau( 128) = (   0.1666667   0.5773503   0.4082483  )
       129           Au  tau( 129) = (   0.3333333   0.2886751   0.4082483  )
       130           Au  tau( 130) = (   0.5000000   0.2886751   0.4082483  )
       131           Au  tau( 131) = (   0.6666667   0.0000000   0.4082483  )
       132           Au  tau( 132) = (   0.6666667   0.2886751   0.4082483  )
       133           Au  tau( 133) = (   0.8333333   0.0000000   0.4082483  )
       134           Au  tau( 134) = (   0.0833333   0.4330127   0.4082483  )
       135           Au  tau( 135) = (   0.2500000   0.1443376   0.4082483  )
       136           Au  tau( 136) = (   0.2500000   0.4330127   0.4082483  )
       137           Au  tau( 137) = (   0.4166667   0.4330127   0.4082483  )
       138           Au  tau( 138) = (   0.5833333   0.1443376   0.4082483  )
       139           Au  tau( 139) = (   0.7500000   0.1443376   0.4082483  )
       140           Au  tau( 140) = (   0.9166667   0.1443376   0.4082483  )
       141           Au  tau( 141) = (   0.0000000   0.2886751   0.4082483  )
       142           Au  tau( 142) = (   0.1666667   0.8660254   0.4082483  )
       143           Au  tau( 143) = (   0.3333333   0.8660254   0.4082483  )
       144           Au  tau( 144) = (   0.5000000   0.0000000   0.4082483  )
       145           Au  tau( 145) = (   0.5000000   0.8660254   0.4082483  )
       146           Au  tau( 146) = (   0.6666667   0.5773503   0.4082483  )
       147           Au  tau( 147) = (   0.8333333   0.5773503   0.4082483  )
       148           Au  tau( 148) = (   0.0833333   0.7216879   0.4082483  )
       149           Au  tau( 149) = (   0.0833333   1.0103630   0.4082483  )
       150           Au  tau( 150) = (   0.2500000   0.7216879   0.4082483  )
       151           Au  tau( 151) = (   0.2500000   1.0103630   0.4082483  )
       152           Au  tau( 152) = (   0.4166667   0.7216879   0.4082483  )
       153           Au  tau( 153) = (   0.5833333   0.4330127   0.4082483  )
       154           Au  tau( 154) = (   0.5833333   0.7216879   0.4082483  )
       155           Au  tau( 155) = (   0.7500000   0.4330127   0.4082483  )
       156           Au  tau( 156) = (   0.7500000   0.7216879   0.4082483  )
       157           Au  tau( 157) = (   0.9166667   0.4330127   0.4082483  )
       158           Au  tau( 158) = (   0.0000000   0.8660254   0.4082483  )
       159           Au  tau( 159) = (   0.3333333   0.5773503   0.4082483  )
       160           Au  tau( 160) = (   0.5000000   0.5773503   0.4082483  )
       161           Au  tau( 161) = (   0.6666667   0.8660254   0.4082483  )
       162           Au  tau( 162) = (   0.8333333   0.2886751   0.4082483  )
       163           Au  tau( 163) = (   0.8333333   0.8660254   0.4082483  )
       164           Au  tau( 164) = (   0.4166667   1.0103630   0.4082483  )
       165           Au  tau( 165) = (   0.5833333   1.0103630   0.4082483  )
       166           Au  tau( 166) = (   0.7500000   1.0103630   0.4082483  )
       167           Au  tau( 167) = (   0.9166667   0.7216879   0.4082483  )
       168           Au  tau( 168) = (   0.9166667   1.0103630   0.4082483  )
       169           Au  tau( 169) = (   0.0833333   0.3367877   0.5443311  )
       170           Au  tau( 170) = (   0.5833333   0.0481125   0.5443311  )
       171           Au  tau( 171) = (   0.3333333   0.1924501   0.5443311  )
       172           Au  tau( 172) = (   0.0833333   0.0481125   0.5443311  )
       173           Au  tau( 173) = (   0.2500000   0.0481125   0.5443311  )
       174           Au  tau( 174) = (   0.2500000   0.3367877   0.5443311  )
       175           Au  tau( 175) = (   0.4166667   0.0481125   0.5443311  )
       176           Au  tau( 176) = (   0.7500000   0.0481125   0.5443311  )
       177           Au  tau( 177) = (   0.1666667   0.1924501   0.5443311  )
       178           Au  tau( 178) = (   0.1666667   0.4811252   0.5443311  )
       179           Au  tau( 179) = (   0.3333333   0.4811252   0.5443311  )
       180           Au  tau( 180) = (   0.5000000   0.1924501   0.5443311  )
       181           Au  tau( 181) = (   0.6666667   0.1924501   0.5443311  )
       182           Au  tau( 182) = (   0.8333333   0.1924501   0.5443311  )
       183           Au  tau( 183) = (   0.0833333   0.6254628   0.5443311  )
       184           Au  tau( 184) = (   0.0833333   0.9141379   0.5443311  )
       185           Au  tau( 185) = (   0.2500000   0.6254628   0.5443311  )
       186           Au  tau( 186) = (   0.2500000   0.9141379   0.5443311  )
       187           Au  tau( 187) = (   0.4166667   0.3367877   0.5443311  )
       188           Au  tau( 188) = (   0.4166667   0.6254628   0.5443311  )
       189           Au  tau( 189) = (   0.4166667   0.9141379   0.5443311  )
       190           Au  tau( 190) = (   0.5833333   0.3367877   0.5443311  )
       191           Au  tau( 191) = (   0.5833333   0.6254628   0.5443311  )
       192           Au  tau( 192) = (   0.5833333   0.9141379   0.5443311  )
       193           Au  tau( 193) = (   0.7500000   0.3367877   0.5443311  )
       194           Au  tau( 194) = (   0.7500000   0.6254628   0.5443311  )
       195           Au  tau( 195) = (   0.7500000   0.9141379   0.5443311  )
       196           Au  tau( 196) = (   0.9166667   0.0481125   0.5443311  )
       197           Au  tau( 197) = (   0.9166667   0.3367877   0.5443311  )
       198           Au  tau( 198) = (   0.9166667   0.6254628   0.5443311  )
       199           Au  tau( 199) = (   0.1666667   0.7698003   0.5443311  )
       200           Au  tau( 200) = (   0.1666667   1.0584755   0.5443311  )
       201           Au  tau( 201) = (   0.3333333   0.7698003   0.5443311  )
       202           Au  tau( 202) = (   0.3333333   1.0584755   0.5443311  )
       203           Au  tau( 203) = (   0.5000000   0.4811252   0.5443311  )
       204           Au  tau( 204) = (   0.5000000   0.7698003   0.5443311  )
       205           Au  tau( 205) = (   0.5000000   1.0584755   0.5443311  )
       206           Au  tau( 206) = (   0.6666667   0.4811252   0.5443311  )
       207           Au  tau( 207) = (   0.6666667   0.7698003   0.5443311  )
       208           Au  tau( 208) = (   0.8333333   0.4811252   0.5443311  )
       209           Au  tau( 209) = (   0.8333333   0.7698003   0.5443311  )
       210           Au  tau( 210) = (   1.0000000   0.1924501   0.5443311  )
       211           Au  tau( 211) = (   1.0000000   0.4811252   0.5443311  )
       212           Au  tau( 212) = (   1.0000000   0.7698003   0.5443311  )
       213           Au  tau( 213) = (   1.0000000   1.0584755   0.5443311  )
       214           Au  tau( 214) = (   0.9166667   0.9141379   0.5443311  )
       215           Au  tau( 215) = (   0.6666667   1.0584755   0.5443311  )
       216           Au  tau( 216) = (   0.8333333   1.0584755   0.5443311  )
       217           Au  tau( 217) = (   0.1666667   0.0962250   0.6804138  )
       218           Au  tau( 218) = (   0.3333333   0.0962250   0.6804138  )
       219           Au  tau( 219) = (   0.5000000   0.0962250   0.6804138  )
       220           Au  tau( 220) = (   0.0833333   0.2405626   0.6804138  )
       221           Au  tau( 221) = (   0.2500000   0.2405626   0.6804138  )
       222           Au  tau( 222) = (   0.2500000   0.5292377   0.6804138  )
       223           Au  tau( 223) = (   0.7500000   0.2405626   0.6804138  )
       224           Au  tau( 224) = (   0.1666667   0.3849002   0.6804138  )
       225           Au  tau( 225) = (   0.1666667   0.6735753   0.6804138  )
       226           Au  tau( 226) = (   0.1666667   0.9622505   0.6804138  )
       227           Au  tau( 227) = (   0.3333333   0.3849002   0.6804138  )
       228           Au  tau( 228) = (   0.3333333   0.6735753   0.6804138  )
       229           Au  tau( 229) = (   0.3333333   0.9622505   0.6804138  )
       230           Au  tau( 230) = (   0.5000000   0.3849002   0.6804138  )
       231           Au  tau( 231) = (   0.5000000   0.6735753   0.6804138  )
       232           Au  tau( 232) = (   0.5000000   0.9622505   0.6804138  )
       233           Au  tau( 233) = (   0.6666667   0.0962250   0.6804138  )
       234           Au  tau( 234) = (   0.6666667   0.3849002   0.6804138  )
       235           Au  tau( 235) = (   0.6666667   0.6735753   0.6804138  )
       236           Au  tau( 236) = (   0.6666667   0.9622505   0.6804138  )
       237           Au  tau( 237) = (   0.8333333   0.0962250   0.6804138  )
       238           Au  tau( 238) = (   0.8333333   0.3849002   0.6804138  )
       239           Au  tau( 239) = (   0.8333333   0.6735753   0.6804138  )
       240           Au  tau( 240) = (   1.0000000   0.0962250   0.6804138  )
       241           Au  tau( 241) = (   1.0000000   0.3849002   0.6804138  )
       242           Au  tau( 242) = (   1.0000000   0.6735753   0.6804138  )
       243           Au  tau( 243) = (   0.0833333   0.5292377   0.6804138  )
       244           Au  tau( 244) = (   0.0833333   0.8179129   0.6804138  )
       245           Au  tau( 245) = (   0.0833333   1.1065880   0.6804138  )
       246           Au  tau( 246) = (   0.2500000   0.8179129   0.6804138  )
       247           Au  tau( 247) = (   0.2500000   1.1065880   0.6804138  )
       248           Au  tau( 248) = (   0.4166667   0.2405626   0.6804138  )
       249           Au  tau( 249) = (   0.4166667   0.5292377   0.6804138  )
       250           Au  tau( 250) = (   0.4166667   0.8179129   0.6804138  )
       251           Au  tau( 251) = (   0.4166667   1.1065880   0.6804138  )
       252           Au  tau( 252) = (   0.5833333   0.2405626   0.6804138  )
       253           Au  tau( 253) = (   0.5833333   0.5292377   0.6804138  )
       254           Au  tau( 254) = (   0.5833333   0.8179129   0.6804138  )
       255           Au  tau( 255) = (   0.7500000   0.5292377   0.6804138  )
       256           Au  tau( 256) = (   0.7500000   0.8179129   0.6804138  )
       257           Au  tau( 257) = (   0.9166667   0.2405626   0.6804138  )
       258           Au  tau( 258) = (   0.9166667   0.5292377   0.6804138  )
       259           Au  tau( 259) = (   0.9166667   0.8179129   0.6804138  )
       260           Au  tau( 260) = (   0.8333333   0.9622505   0.6804138  )
       261           Au  tau( 261) = (   1.0000000   0.9622505   0.6804138  )
       262           Au  tau( 262) = (   0.5833333   1.1065880   0.6804138  )
       263           Au  tau( 263) = (   0.7500000   1.1065880   0.6804138  )
       264           Au  tau( 264) = (   0.9166667   1.1065880   0.6804138  )
       265           Au  tau( 265) = (   0.0000000   0.0000000   0.8164966  )
       266           Au  tau( 266) = (   0.0000000   0.2886751   0.8164966  )
       267           Au  tau( 267) = (   0.1666667   0.0000000   0.8164966  )
       268           Au  tau( 268) = (   0.1666667   0.2886751   0.8164966  )
       269           Au  tau( 269) = (   0.3333333   0.0000000   0.8164966  )
       270           Au  tau( 270) = (   0.5000000   0.0000000   0.8164966  )
       271           Au  tau( 271) = (   0.6666667   0.0000000   0.8164966  )
       272           Au  tau( 272) = (   0.0833333   0.1443376   0.8164966  )
       273           Au  tau( 273) = (   0.2500000   0.1443376   0.8164966  )
       274           Au  tau( 274) = (   0.4166667   0.1443376   0.8164966  )
       275           Au  tau( 275) = (   0.0000000   0.8660254   0.8164966  )
       276           Au  tau( 276) = (   0.1666667   0.5773503   0.8164966  )
       277           Au  tau( 277) = (   0.1666667   0.8660254   0.8164966  )
       278           Au  tau( 278) = (   0.3333333   0.5773503   0.8164966  )
       279           Au  tau( 279) = (   0.3333333   0.8660254   0.8164966  )
       280           Au  tau( 280) = (   0.5000000   0.5773503   0.8164966  )
       281           Au  tau( 281) = (   0.5000000   0.8660254   0.8164966  )
       282           Au  tau( 282) = (   0.6666667   0.2886751   0.8164966  )
       283           Au  tau( 283) = (   0.6666667   0.5773503   0.8164966  )
       284           Au  tau( 284) = (   0.6666667   0.8660254   0.8164966  )
       285           Au  tau( 285) = (   0.8333333   0.2886751   0.8164966  )
       286           Au  tau( 286) = (   0.8333333   0.5773503   0.8164966  )
       287           Au  tau( 287) = (   0.8333333   0.8660254   0.8164966  )
       288           Au  tau( 288) = (   0.0833333   0.4330127   0.8164966  )
       289           Au  tau( 289) = (   0.0833333   0.7216879   0.8164966  )
       290           Au  tau( 290) = (   0.0833333   1.0103630   0.8164966  )
       291           Au  tau( 291) = (   0.2500000   0.4330127   0.8164966  )
       292           Au  tau( 292) = (   0.2500000   0.7216879   0.8164966  )
       293           Au  tau( 293) = (   0.2500000   1.0103630   0.8164966  )
       294           Au  tau( 294) = (   0.4166667   0.4330127   0.8164966  )
       295           Au  tau( 295) = (   0.4166667   0.7216879   0.8164966  )
       296           Au  tau( 296) = (   0.4166667   1.0103630   0.8164966  )
       297           Au  tau( 297) = (   0.5833333   0.1443376   0.8164966  )
       298           Au  tau( 298) = (   0.5833333   0.4330127   0.8164966  )
       299           Au  tau( 299) = (   0.5833333   0.7216879   0.8164966  )
       300           Au  tau( 300) = (   0.5833333   1.0103630   0.8164966  )
       301           Au  tau( 301) = (   0.7500000   0.1443376   0.8164966  )
       302           Au  tau( 302) = (   0.7500000   0.4330127   0.8164966  )
       303           Au  tau( 303) = (   0.7500000   0.7216879   0.8164966  )
       304           Au  tau( 304) = (   0.9166667   0.1443376   0.8164966  )
       305           Au  tau( 305) = (   0.9166667   0.4330127   0.8164966  )
       306           Au  tau( 306) = (   0.9166667   0.7216879   0.8164966  )
       307           Au  tau( 307) = (   0.0000000   0.5773503   0.8164966  )
       308           Au  tau( 308) = (   0.3333333   0.2886751   0.8164966  )
       309           Au  tau( 309) = (   0.5000000   0.2886751   0.8164966  )
       310           Au  tau( 310) = (   0.8333333   0.0000000   0.8164966  )
       311           Au  tau( 311) = (   0.7500000   1.0103630   0.8164966  )
       312           Au  tau( 312) = (   0.9166667   1.0103630   0.8164966  )
       313           Au  tau( 313) = (   0.0833333   0.6254628   0.9525793  )
       314           Au  tau( 314) = (   0.2500000   0.6254628   0.9525793  )
       315           Au  tau( 315) = (   0.4166667   0.6254628   0.9525793  )
       316           Au  tau( 316) = (   0.5833333   0.3367877   0.9525793  )
       317           Au  tau( 317) = (   0.7500000   0.3367877   0.9525793  )
       318           Au  tau( 318) = (   0.9166667   0.3367877   0.9525793  )
       319           Au  tau( 319) = (   0.1666667   0.7698003   0.9525793  )
       320           Au  tau( 320) = (   0.3333333   0.4811252   0.9525793  )
       321           Au  tau( 321) = (   0.5000000   0.4811252   0.9525793  )
       322           Au  tau( 322) = (   0.6666667   0.4811252   0.9525793  )
       323           Au  tau( 323) = (   0.8333333   0.1924501   0.9525793  )
       324           Au  tau( 324) = (   1.0000000   0.1924501   0.9525793  )
       325           Au  tau( 325) = (   0.0833333   0.0481125   0.9525793  )
       326           Au  tau( 326) = (   0.0833333   0.3367877   0.9525793  )
       327           Au  tau( 327) = (   0.0833333   0.9141379   0.9525793  )
       328           Au  tau( 328) = (   0.2500000   0.0481125   0.9525793  )
       329           Au  tau( 329) = (   0.2500000   0.3367877   0.9525793  )
       330           Au  tau( 330) = (   0.4166667   0.0481125   0.9525793  )
       331           Au  tau( 331) = (   0.4166667   0.3367877   0.9525793  )
       332           Au  tau( 332) = (   0.5833333   0.0481125   0.9525793  )
       333           Au  tau( 333) = (   0.5833333   0.6254628   0.9525793  )
       334           Au  tau( 334) = (   0.7500000   0.0481125   0.9525793  )
       335           Au  tau( 335) = (   0.9166667   0.0481125   0.9525793  )
       336           Au  tau( 336) = (   0.1666667   0.1924501   0.9525793  )
       337           Au  tau( 337) = (   0.1666667   0.4811252   0.9525793  )
       338           Au  tau( 338) = (   0.1666667   1.0584755   0.9525793  )
       339           Au  tau( 339) = (   0.3333333   0.1924501   0.9525793  )
       340           Au  tau( 340) = (   0.3333333   0.7698003   0.9525793  )
       341           Au  tau( 341) = (   0.5000000   0.1924501   0.9525793  )
       342           Au  tau( 342) = (   0.5000000   0.7698003   0.9525793  )
       343           Au  tau( 343) = (   0.6666667   0.1924501   0.9525793  )
       344           Au  tau( 344) = (   0.6666667   0.7698003   0.9525793  )
       345           Au  tau( 345) = (   0.8333333   0.4811252   0.9525793  )
       346           Au  tau( 346) = (   1.0000000   0.4811252   0.9525793  )
       347           Au  tau( 347) = (   0.2500000   0.9141379   0.9525793  )
       348           Au  tau( 348) = (   0.4166667   0.9141379   0.9525793  )
       349           Au  tau( 349) = (   0.5833333   0.9141379   0.9525793  )
       350           Au  tau( 350) = (   0.7500000   0.6254628   0.9525793  )
       351           Au  tau( 351) = (   0.7500000   0.9141379   0.9525793  )
       352           Au  tau( 352) = (   0.9166667   0.6254628   0.9525793  )
       353           Au  tau( 353) = (   0.9166667   0.9141379   0.9525793  )
       354           Au  tau( 354) = (   0.3333333   1.0584755   0.9525793  )
       355           Au  tau( 355) = (   0.5000000   1.0584755   0.9525793  )
       356           Au  tau( 356) = (   0.6666667   1.0584755   0.9525793  )
       357           Au  tau( 357) = (   0.8333333   0.7698003   0.9525793  )
       358           Au  tau( 358) = (   0.8333333   1.0584755   0.9525793  )
       359           Au  tau( 359) = (   1.0000000   0.7698003   0.9525793  )
       360           Au  tau( 360) = (   1.0000000   1.0584755   0.9525793  )
       361           Au  tau( 361) = (   0.1666667   0.6735753   1.0886621  )
       362           Au  tau( 362) = (   0.3333333   0.6735753   1.0886621  )
       363           Au  tau( 363) = (   0.5000000   0.3849002   1.0886621  )
       364           Au  tau( 364) = (   0.6666667   0.3849002   1.0886621  )
       365           Au  tau( 365) = (   0.8333333   0.3849002   1.0886621  )
       366           Au  tau( 366) = (   1.0000000   0.0962250   1.0886621  )
       367           Au  tau( 367) = (   0.0833333   0.8179129   1.0886621  )
       368           Au  tau( 368) = (   0.2500000   0.5292377   1.0886621  )
       369           Au  tau( 369) = (   0.4166667   0.5292377   1.0886621  )
       370           Au  tau( 370) = (   0.5833333   0.5292377   1.0886621  )
       371           Au  tau( 371) = (   0.7500000   0.2405626   1.0886621  )
       372           Au  tau( 372) = (   0.9166667   0.2405626   1.0886621  )
       373           Au  tau( 373) = (   0.1666667   0.0962250   1.0886621  )
       374           Au  tau( 374) = (   0.1666667   0.3849002   1.0886621  )
       375           Au  tau( 375) = (   0.1666667   0.9622505   1.0886621  )
       376           Au  tau( 376) = (   0.3333333   0.0962250   1.0886621  )
       377           Au  tau( 377) = (   0.3333333   0.3849002   1.0886621  )
       378           Au  tau( 378) = (   0.5000000   0.0962250   1.0886621  )
       379           Au  tau( 379) = (   0.5000000   0.6735753   1.0886621  )
       380           Au  tau( 380) = (   0.6666667   0.0962250   1.0886621  )
       381           Au  tau( 381) = (   0.6666667   0.6735753   1.0886621  )
       382           Au  tau( 382) = (   0.8333333   0.0962250   1.0886621  )
       383           Au  tau( 383) = (   1.0000000   0.3849002   1.0886621  )
       384           Au  tau( 384) = (   0.0833333   0.2405626   1.0886621  )
       385           Au  tau( 385) = (   0.0833333   0.5292377   1.0886621  )
       386           Au  tau( 386) = (   0.0833333   1.1065880   1.0886621  )
       387           Au  tau( 387) = (   0.2500000   0.2405626   1.0886621  )
       388           Au  tau( 388) = (   0.2500000   0.8179129   1.0886621  )
       389           Au  tau( 389) = (   0.4166667   0.2405626   1.0886621  )
       390           Au  tau( 390) = (   0.4166667   0.8179129   1.0886621  )
       391           Au  tau( 391) = (   0.5833333   0.2405626   1.0886621  )
       392           Au  tau( 392) = (   0.5833333   0.8179129   1.0886621  )
       393           Au  tau( 393) = (   0.7500000   0.5292377   1.0886621  )
       394           Au  tau( 394) = (   0.9166667   0.5292377   1.0886621  )
       395           Au  tau( 395) = (   0.3333333   0.9622505   1.0886621  )
       396           Au  tau( 396) = (   0.5000000   0.9622505   1.0886621  )
       397           Au  tau( 397) = (   0.6666667   0.9622505   1.0886621  )
       398           Au  tau( 398) = (   0.8333333   0.6735753   1.0886621  )
       399           Au  tau( 399) = (   0.8333333   0.9622505   1.0886621  )
       400           Au  tau( 400) = (   1.0000000   0.6735753   1.0886621  )
       401           Au  tau( 401) = (   1.0000000   0.9622505   1.0886621  )
       402           Au  tau( 402) = (   0.2500000   1.1065880   1.0886621  )
       403           Au  tau( 403) = (   0.4166667   1.1065880   1.0886621  )
       404           Au  tau( 404) = (   0.5833333   1.1065880   1.0886621  )
       405           Au  tau( 405) = (   0.7500000   0.8179129   1.0886621  )
       406           Au  tau( 406) = (   0.7500000   1.1065880   1.0886621  )
       407           Au  tau( 407) = (   0.9166667   0.8179129   1.0886621  )
       408           Au  tau( 408) = (   0.9166667   1.1065880   1.0886621  )
       409           Au  tau( 409) = (   0.0833333   0.7216879   1.2247449  )
       410           Au  tau( 410) = (   0.2500000   0.7216879   1.2247449  )
       411           Au  tau( 411) = (   0.4166667   0.4330127   1.2247449  )
       412           Au  tau( 412) = (   0.5833333   0.4330127   1.2247449  )
       413           Au  tau( 413) = (   0.7500000   0.4330127   1.2247449  )
       414           Au  tau( 414) = (   0.9166667   0.1443376   1.2247449  )
       415           Au  tau( 415) = (   0.0833333   0.1443376   1.2247449  )
       416           Au  tau( 416) = (   0.0833333   0.4330127   1.2247449  )
       417           Au  tau( 417) = (   0.0833333   1.0103630   1.2247449  )
       418           Au  tau( 418) = (   0.2500000   0.1443376   1.2247449  )
       419           Au  tau( 419) = (   0.2500000   0.4330127   1.2247449  )
       420           Au  tau( 420) = (   0.4166667   0.1443376   1.2247449  )
       421           Au  tau( 421) = (   0.4166667   0.7216879   1.2247449  )
       422           Au  tau( 422) = (   0.5833333   0.1443376   1.2247449  )
       423           Au  tau( 423) = (   0.5833333   0.7216879   1.2247449  )
       424           Au  tau( 424) = (   0.7500000   0.1443376   1.2247449  )
       425           Au  tau( 425) = (   0.9166667   0.4330127   1.2247449  )
       426           Au  tau( 426) = (   0.5833333   1.0103630   1.2247449  )
       427           Au  tau( 427) = (   0.7500000   1.0103630   1.2247449  )
       428           Au  tau( 428) = (   0.9166667   1.0103630   1.2247449  )
       429           Au  tau( 429) = (   0.2500000   1.0103630   1.2247449  )
       430           Au  tau( 430) = (   0.4166667   1.0103630   1.2247449  )
       431           Au  tau( 431) = (   0.7500000   0.7216879   1.2247449  )
       432           Au  tau( 432) = (   0.9166667   0.7216879   1.2247449  )

     number of k points=     4  Marzari-Vanderbilt smearing, width (Ry)=  0.0500
                       cart. coord. in units 2pi/alat
        k(    1) = (   0.1250000   0.1082532   0.0000000), wk =   0.5000000
        k(    2) = (   0.1250000   0.3247595   0.0000000), wk =   0.5000000
        k(    3) = (   0.3750000   0.1082532   0.0000000), wk =   0.5000000
        k(    4) = (   0.3750000   0.3247595   0.0000000), wk =   0.5000000

     Dense  grid:  8550627 G-vectors     FFT dimensions: ( 200, 240, 360)

     Smooth grid:  2643085 G-vectors     FFT dimensions: ( 135, 160, 243)

     Estimated max dynamical RAM per process >      11.27 GB

     Estimated total dynamical RAM >    1082.28 GB

     Initial potential from superposition of free atoms

     starting charge 4746.98365, renormalised to 4752.00000

     negative rho (up, down):  1.152E+01 0.000E+00
     Starting wfcs are 3888 randomized atomic wfcs

     total cpu time spent up to now is       92.9 secs

     Self-consistent Calculation

     iteration #  1     ecut=    40.00 Ry     beta= 0.70
     Davidson diagonalization with overlap
     ethr =  1.00E-02,  avg # of iterations =  3.0

     Threshold (ethr) on eigenvalues was too large:
     Diagonalizing with lowered threshold

     Davidson diagonalization with overlap
     ethr =  3.34E-04,  avg # of iterations =  3.8

     negative rho (up, down):  1.095E+01 0.000E+00

     total cpu time spent up to now is      564.6 secs

     total energy              =  -44077.60662072 Ry
     estimated scf accuracy    <      18.95757271 Ry

     iteration #  2     ecut=    40.00 Ry     beta= 0.70
     Davidson diagonalization with overlap
     ethr =  3.99E-04,  avg # of iterations =  1.5

     negative rho (up, down):  1.157E+01 0.000E+00

     total cpu time spent up to now is      760.7 secs

     total energy              =  -44078.47288995 Ry
     estimated scf accuracy    <       8.44616197 Ry

     iteration #  3     ecut=    40.00 Ry     beta= 0.70
     Davidson diagonalization with overlap
     ethr =  1.78E-04,  avg # of iterations =  3.5

     negative rho (up, down):  1.215E+01 0.000E+00

     total cpu time spent up to now is      982.8 secs

     total energy              =  -44078.42265934 Ry
     estimated scf accuracy    <       4.94723725 Ry

     iteration #  4     ecut=    40.00 Ry     beta= 0.70
     Davidson diagonalization with overlap
     c_bands:  1 eigenvalues not converged
     ethr =  1.04E-04,  avg # of iterations = 12.0

     negative rho (up, down):  1.214E+01 0.000E+00

     total cpu time spent up to now is     1270.3 secs

     total energy              =  -44078.34252789 Ry
     estimated scf accuracy    <       2.42770991 Ry

     iteration #  5     ecut=    40.00 Ry     beta= 0.70
     Davidson diagonalization with overlap
     ethr =  5.11E-05,  avg # of iterations = 17.5

     negative rho (up, down):  1.185E+01 0.000E+00

     total cpu time spent up to now is     1609.5 secs

     total energy              =  -44078.30993237 Ry
     estimated scf accuracy    <       1.48051578 Ry

     iteration #  6     ecut=    40.00 Ry     beta= 0.70
     Davidson diagonalization with overlap
     ethr =  3.12E-05,  avg # of iterations = 14.2

     negative rho (up, down):  1.187E+01 0.000E+00

     total cpu time spent up to now is     1899.9 secs

     total energy              =  -44078.26577932 Ry
     estimated scf accuracy    <       1.40926517 Ry

     iteration #  7     ecut=    40.00 Ry     beta= 0.70
     Davidson diagonalization with overlap
     ethr =  2.97E-05,  avg # of iterations =  7.2

     negative rho (up, down):  1.192E+01 0.000E+00

     total cpu time spent up to now is     2128.7 secs

     total energy              =  -44078.22024893 Ry
     estimated scf accuracy    <       1.43945797 Ry

     iteration #  8     ecut=    40.00 Ry     beta= 0.70
     Davidson diagonalization with overlap
     ethr =  2.97E-05,  avg # of iterations =  4.2

     negative rho (up, down):  1.215E+01 0.000E+00

     total cpu time spent up to now is     2352.4 secs

     total energy              =  -44078.11002667 Ry
     estimated scf accuracy    <       1.01899993 Ry

     iteration #  9     ecut=    40.00 Ry     beta= 0.70
     Davidson diagonalization with overlap
     ethr =  2.14E-05,  avg # of iterations = 14.2

     negative rho (up, down):  1.207E+01 0.000E+00

     total cpu time spent up to now is     2753.1 secs

     total energy              =  -44078.23701168 Ry
     estimated scf accuracy    <       1.49248052 Ry

     iteration # 10     ecut=    40.00 Ry     beta= 0.70
     Davidson diagonalization with overlap
     ethr =  2.14E-05,  avg # of iterations =  1.2

     negative rho (up, down):  1.219E+01 0.000E+00

     total cpu time spent up to now is     2949.8 secs

     total energy              =  -44078.17331223 Ry
     estimated scf accuracy    <       0.84202719 Ry

     iteration # 11     ecut=    40.00 Ry     beta= 0.70
     Davidson diagonalization with overlap
     ethr =  1.77E-05,  avg # of iterations =  1.2

     negative rho (up, down):  1.224E+01 0.000E+00

     total cpu time spent up to now is     3143.9 secs

     total energy              =  -44078.23862906 Ry
     estimated scf accuracy    <       0.41273781 Ry

     iteration # 12     ecut=    40.00 Ry     beta= 0.70
     Davidson diagonalization with overlap
     ethr =  8.69E-06,  avg # of iterations =  2.0

     negative rho (up, down):  1.245E+01 0.000E+00

     total cpu time spent up to now is     3345.3 secs

     total energy              =  -44078.11672314 Ry
     estimated scf accuracy    <       1.05535345 Ry

     iteration # 13     ecut=    40.00 Ry     beta= 0.70
     Davidson diagonalization with overlap
     c_bands:  1 eigenvalues not converged
     ethr =  8.69E-06,  avg # of iterations = 17.8

     negative rho (up, down):  1.215E+01 0.000E+00

     total cpu time spent up to now is     3678.0 secs

     total energy              =  -44078.11481380 Ry
     estimated scf accuracy    <       0.11603571 Ry

     iteration # 14     ecut=    40.00 Ry     beta= 0.70
     Davidson diagonalization with overlap
     ethr =  2.44E-06,  avg # of iterations = 13.8

     negative rho (up, down):  1.208E+01 0.000E+00

     total cpu time spent up to now is     4470.8 secs

     total energy              =  -44078.15572279 Ry
     estimated scf accuracy    <       0.32438608 Ry

     iteration # 15     ecut=    40.00 Ry     beta= 0.70
     Davidson diagonalization with overlap
     ethr =  2.44E-06,  avg # of iterations =  2.8

     negative rho (up, down):  1.197E+01 0.000E+00

     total cpu time spent up to now is     4686.9 secs

     total energy              =  -44078.12573798 Ry
     estimated scf accuracy    <       0.17701546 Ry

     iteration # 16     ecut=    40.00 Ry     beta= 0.70
     Davidson diagonalization with overlap
     ethr =  2.44E-06,  avg # of iterations =  9.2

     negative rho (up, down):  1.184E+01 0.000E+00

     total cpu time spent up to now is     4990.9 secs

     total energy              =  -44078.13974927 Ry
     estimated scf accuracy    <       0.00340143 Ry

     iteration # 17     ecut=    40.00 Ry     beta= 0.70
     Davidson diagonalization with overlap
     ethr =  7.16E-08,  avg # of iterations =  9.8

     negative rho (up, down):  1.176E+01 0.000E+00

     total cpu time spent up to now is     5324.2 secs

     total energy              =  -44078.13918673 Ry
     estimated scf accuracy    <       0.00481336 Ry

     iteration # 18     ecut=    40.00 Ry     beta= 0.70
     Davidson diagonalization with overlap
     c_bands:  1 eigenvalues not converged
     ethr =  7.16E-08,  avg # of iterations = 14.2

     negative rho (up, down):  1.175E+01 0.000E+00

     total cpu time spent up to now is     5639.5 secs

     total energy              =  -44078.13981944 Ry
     estimated scf accuracy    <       0.00032197 Ry

     iteration # 19     ecut=    40.00 Ry     beta= 0.70
     Davidson diagonalization with overlap
     ethr =  6.78E-09,  avg # of iterations =  7.8

     negative rho (up, down):  1.175E+01 0.000E+00

     total cpu time spent up to now is     5944.1 secs

     total energy              =  -44078.14011087 Ry
     estimated scf accuracy    <       0.00016852 Ry

     iteration # 20     ecut=    40.00 Ry     beta= 0.70
     Davidson diagonalization with overlap
     ethr =  3.55E-09,  avg # of iterations =  5.2

     negative rho (up, down):  1.175E+01 0.000E+00

     total cpu time spent up to now is     6208.7 secs

     total energy              =  -44078.14017275 Ry
     estimated scf accuracy    <       0.00019644 Ry

     iteration # 21     ecut=    40.00 Ry     beta= 0.70
     Davidson diagonalization with overlap
     ethr =  3.55E-09,  avg # of iterations =  5.0

     negative rho (up, down):  1.175E+01 0.000E+00

     total cpu time spent up to now is     6425.5 secs

     total energy              =  -44078.14019232 Ry
     estimated scf accuracy    <       0.00000867 Ry

     iteration # 22     ecut=    40.00 Ry     beta= 0.70
     Davidson diagonalization with overlap
     ethr =  1.83E-10,  avg # of iterations =  3.8

     negative rho (up, down):  1.175E+01 0.000E+00

     total cpu time spent up to now is     6639.5 secs

     total energy              =  -44078.14019477 Ry
     estimated scf accuracy    <       0.00000115 Ry

     iteration # 23     ecut=    40.00 Ry     beta= 0.70
     Davidson diagonalization with overlap
     ethr =  2.42E-11,  avg # of iterations =  4.0

     negative rho (up, down):  1.175E+01 0.000E+00

     total cpu time spent up to now is     6894.9 secs

     End of self-consistent calculation

          k = 0.1250 0.1083 0.0000 (330335 PWs)   bands (ev):

    -0.8186  -0.4827  -0.4768  -0.3733  -0.2667  -0.1473  -0.0896  -0.0572
    -0.0401   0.0200   0.0628   0.1473   0.2076   0.2352   0.2657   0.3412
     0.4002   0.4462   0.4617   0.5183   0.5429   0.5961   0.6021   0.7003
     0.7096   0.7366   0.8848   0.9107   0.9153   0.9199   0.9698   0.9865
     1.0153   1.0410   1.1037   1.1198   1.1346   1.1662   1.1716   1.1992
     1.2425   1.2496   1.2681   1.2861   1.2894   1.2926   1.3019   1.4025
     1.4297   1.4318   1.4383   1.4416   1.4557   1.4562   1.4592   1.4810
     1.4989   1.5082   1.5205   1.5209   1.5243   1.5363   1.5602   1.5637
     1.5779   1.6021   1.6083   1.6097   1.6125   1.6139   1.6140   1.6229
     1.6425   1.6518   1.6540   1.6655   1.6871   1.6953   1.7077   1.7238
     1.7354   1.7509   1.7584   1.7596   1.7601   1.7654   1.7716   1.7841
     1.7973   1.8128   1.8266   1.8320   1.8398   1.8427   1.8451   1.8486
     1.8498   1.8502   1.8511   1.8630   1.8640   1.8665   1.8680   1.8885
     1.9051   1.9052   1.9091   1.9122   1.9258   1.9275   1.9317   1.9410
     1.9474   1.9557   1.9558   1.9570   1.9674   1.9679   1.9802   1.9822
     1.9850   1.9916   1.9987   2.0114   2.0129   2.0160   2.0173   2.0212
     2.0264   2.0278   2.0322   2.0357   2.0413   2.0441   2.0451   2.0454
     2.0514   2.0614   2.0653   2.0680   2.0760   2.0815   2.0935   2.0976
     2.1006   2.1023   2.1187   2.1193   2.1198   2.1230   2.1231   2.1236
     2.1247   2.1252   2.1276   2.1291   2.1375   2.1408   2.1441   2.1502
     2.1508   2.1520   2.1554   2.1571   2.1585   2.1604   2.1641   2.1653
     2.1661   2.1763   2.1786   2.1823   2.1827   2.1957   2.2031   2.2042
     2.2101   2.2119   2.2129   2.2158   2.2187   2.2191   2.2191   2.2196
     2.2231   2.2264   2.2275   2.2325   2.2377   2.2411   2.2434   2.2448
     2.2478   2.2508   2.2578   2.2599   2.2612   2.2634   2.2684   2.2763
     2.2904   2.2919   2.2983   2.2990   2.2997   2.3022   2.3071   2.3079
     2.3085   2.3096   2.3106   2.3113   2.3123   2.3156   2.3200   2.3208
     2.3248   2.3254   2.3261   2.3281   2.3283   2.3333   2.3343   2.3435
     2.3465   2.3513   2.3532   2.3553   2.3597   2.3633   2.3669   2.3721
     2.3727   2.3754   2.3858   2.3864   2.3882   2.3896   2.3904   2.3923
     2.3941   2.3990   2.4023   2.4124   2.4127   2.4129   2.4157   2.4160
     2.4258   2.4264   2.4308   2.4339   2.4418   2.4433   2.4442   2.4462
     2.4468   2.4482   2.4495   2.4499   2.4520   2.4521   2.4558   2.4605
     2.4651   2.4728   2.4740   2.4751   2.4765   2.4823   2.4850   2.4851
     2.4855   2.4889   2.4912   2.4952   2.4982   2.5037   2.5099   2.5115
     2.5118   2.5123   2.5183   2.5191   2.5199   2.5231   2.5232   2.5247
     2.5341   2.5368   2.5379   2.5414   2.5440   2.5458   2.5471   2.5513
     2.5540   2.5569   2.5722   2.5758   2.5779   2.5780   2.5783   2.5813
     2.5819   2.5822   2.5847   2.5849   2.5872   2.5936   2.5946   2.5951
     2.5962   2.5967   2.6018   2.6043   2.6058   2.6115   2.6176   2.6263
     2.6264   2.6284   2.6326   2.6330   2.6355   2.6360   2.6377   2.6392
     2.6444   2.6522   2.6611   2.6642   2.6653   2.6668   2.6741   2.6753
     2.6759   2.6801   2.6817   2.6826   2.6892   2.6903   2.6915   2.6958
     2.6969   2.7011   2.7023   2.7070   2.7138   2.7150   2.7151   2.7206
     2.7228   2.7254   2.7257   2.7266   2.7271   2.7297   2.7347   2.7367
     2.7398   2.7410   2.7411   2.7441   2.7443   2.7525   2.7542   2.7586
     2.7645   2.7672   2.7693   2.7698   2.7799   2.7801   2.7819   2.7828
     2.7829   2.7833   2.7866   2.7883   2.7887   2.7890   2.7952   2.7989
     2.7999   2.8037   2.8112   2.8136   2.8149   2.8168   2.8174   2.8185
     2.8212   2.8272   2.8286   2.8375   2.8400   2.8471   2.8480   2.8506
     2.8518   2.8535   2.8537   2.8597   2.8608   2.8610   2.8611   2.8627
     2.8698   2.8752   2.8827   2.8939   2.8959   2.8969   2.8988   2.9019
     2.9022   2.9040   2.9042   2.9055   2.9090   2.9141   2.9144   2.9152
     2.9249   2.9271   2.9305   2.9313   2.9331   2.9340   2.9355   2.9359
     2.9446   2.9502   2.9631   2.9646   2.9657   2.9661   2.9684   2.9721
     2.9726   2.9765   2.9775   2.9983   3.0080   3.0097   3.0123   3.0131
     3.0162   3.0278   3.0281   3.0359   3.0377   3.0378   3.0391   3.0406
     3.0422   3.0544   3.0547   3.0620   3.0643   3.0683   3.0720   3.0798
     3.0807   3.0822   3.0850   3.0851   3.0919   3.0973   3.0976   3.0978
     3.0987   3.0991   3.1050   3.1091   3.1139   3.1178   3.1237   3.1261
     3.1268   3.1287   3.1322   3.1336   3.1408   3.1450   3.1535   3.1570
     3.1599   3.1620   3.1632   3.1734   3.1735   3.1756   3.1757   3.1757
     3.1793   3.1793   3.1828   3.1832   3.1853   3.1871   3.1894   3.1908
     3.1909   3.1935   3.1952   3.1977   3.2000   3.2004   3.2090   3.2211
     3.2235   3.2267   3.2304   3.2327   3.2357   3.2398   3.2402   3.2403
     3.2411   3.2417   3.2435   3.2522   3.2528   3.2592   3.2593   3.2597
     3.2612   3.2682   3.2686   3.2790   3.2808   3.2855   3.2884   3.2899
     3.2900   3.2902   3.2929   3.2960   3.2978   3.3005   3.3036   3.3053
     3.3077   3.3110   3.3136   3.3197   3.3199   3.3217   3.3255   3.3259
     3.3266   3.3267   3.3282   3.3283   3.3286   3.3304   3.3379   3.3387
     3.3412   3.3424   3.3443   3.3466   3.3508   3.3517   3.3526   3.3546
     3.3552   3.3555   3.3565   3.3586   3.3592   3.3636   3.3735   3.3750
     3.3780   3.3788   3.3817   3.3821   3.3858   3.3913   3.3920   3.3973
     3.3974   3.3985   3.3989   3.4033   3.4040   3.4157   3.4194   3.4213
     3.4251   3.4269   3.4282   3.4287   3.4359   3.4414   3.4418   3.4429
     3.4499   3.4499   3.4571   3.4571   3.4595   3.4597   3.4612   3.4656
     3.4667   3.4669   3.4680   3.4712   3.4730   3.4754   3.4755   3.4767
     3.4821   3.4850   3.4863   3.4865   3.4880   3.4914   3.4989   3.4998
     3.5005   3.5029   3.5044   3.5063   3.5085   3.5094   3.5114   3.5117
     3.5147   3.5159   3.5164   3.5168   3.5184   3.5206   3.5279   3.5294
     3.5316   3.5326   3.5356   3.5365   3.5462   3.5478   3.5479   3.5533
     3.5607   3.5626   3.5633   3.5685   3.5720   3.5720   3.5747   3.5767
     3.5785   3.5824   3.5877   3.5881   3.5887   3.5921   3.5932   3.5954
     3.5962   3.5981   3.5992   3.6014   3.6038   3.6052   3.6074   3.6079
     3.6083   3.6104   3.6175   3.6176   3.6217   3.6217   3.6232   3.6250
     3.6272   3.6329   3.6349   3.6359   3.6359   3.6424   3.6446   3.6483
     3.6502   3.6505   3.6509   3.6594   3.6599   3.6641   3.6666   3.6683
     3.6688   3.6729   3.6766   3.6767   3.6770   3.6811   3.6830   3.6888
     3.6896   3.6897   3.6903   3.6921   3.6957   3.6967   3.7017   3.7064
     3.7089   3.7093   3.7129   3.7169   3.7176   3.7193   3.7202   3.7241
     3.7253   3.7296   3.7310   3.7370   3.7382   3.7460   3.7531   3.7540
     3.7544   3.7565   3.7594   3.7605   3.7663   3.7693   3.7701   3.7735
     3.7780   3.7785   3.7792   3.7799   3.7811   3.7833   3.7836   3.7842
     3.7847   3.7916   3.7919   3.7951   3.8073   3.8172   3.8189   3.8200
     3.8214   3.8234   3.8251   3.8265   3.8280   3.8291   3.8336   3.8342
     3.8360   3.8407   3.8448   3.8450   3.8464   3.8467   3.8528   3.8528
     3.8532   3.8538   3.8554   3.8564   3.8571   3.8594   3.8604   3.8634
     3.8634   3.8661   3.8661   3.8667   3.8669   3.8671   3.8689   3.8693
     3.8731   3.8758   3.8788   3.8803   3.8859   3.8873   3.8874   3.8895
     3.8925   3.8938   3.8958   3.8962   3.8976   3.9023   3.9062   3.9067
     3.9081   3.9092   3.9116   3.9147   3.9149   3.9159   3.9163   3.9232
     3.9239   3.9273   3.9289   3.9290   3.9308   3.9311   3.9335   3.9335
     3.9337   3.9345   3.9372   3.9400   3.9461   3.9477   3.9478   3.9495
     3.9498   3.9543   3.9545   3.9545   3.9569   3.9616   3.9651   3.9672
     3.9694   3.9696   3.9705   3.9713   3.9725   3.9726   3.9760   3.9762
     3.9766   3.9809   3.9824   3.9830   3.9841   3.9882   3.9902   3.9909
     3.9921   3.9961   4.0017   4.0021   4.0032   4.0033   4.0062   4.0080
     4.0084   4.0084   4.0092   4.0115   4.0177   4.0192   4.0256   4.0265
     4.0277   4.0338   4.0360   4.0377   4.0377   4.0381   4.0440   4.0446
     4.0454   4.0473   4.0478   4.0491   4.0509   4.0514   4.0523   4.0526
     4.0527   4.0559   4.0592   4.0603   4.0614   4.0650   4.0666   4.0699
     4.0699   4.0713   4.0715   4.0762   4.0774   4.0784   4.0787   4.0788
     4.0791   4.0801   4.0810   4.0835   4.0849   4.0853   4.0859   4.0864
     4.0875   4.0891   4.0915   4.0930   4.0961   4.0989   4.0999   4.1015
     4.1022   4.1049   4.1071   4.1093   4.1096   4.1100   4.1111   4.1121
     4.1127   4.1128   4.1145   4.1148   4.1211   4.1249   4.1261   4.1269
     4.1275   4.1277   4.1281   4.1300   4.1321   4.1336   4.1345   4.1345
     4.1403   4.1421   4.1431   4.1443   4.1455   4.1471   4.1480   4.1486
     4.1493   4.1529   4.1531   4.1536   4.1556   4.1612   4.1626   4.1631
     4.1641   4.1648   4.1651   4.1678   4.1680   4.1687   4.1742   4.1749
     4.1754   4.1766   4.1803   4.1808   4.1814   4.1819   4.1822   4.1838
     4.1841   4.1856   4.1874   4.1900   4.1902   4.1911   4.1911   4.1927
     4.1932   4.1949   4.1968   4.1975   4.1977   4.2014   4.2022   4.2043
     4.2061   4.2073   4.2084   4.2092   4.2102   4.2104   4.2118   4.2139
     4.2156   4.2177   4.2196   4.2199   4.2216   4.2221   4.2229   4.2233
     4.2257   4.2271   4.2324   4.2336   4.2347   4.2360   4.2384   4.2436
     4.2438   4.2480   4.2511   4.2514   4.2520   4.2556   4.2569   4.2579
     4.2583   4.2584   4.2585   4.2615   4.2629   4.2639   4.2658   4.2666
     4.2674   4.2759   4.2763   4.2770   4.2778   4.2798   4.2810   4.2814
     4.2818   4.2849   4.2899   4.2909   4.2944   4.2952   4.2958   4.2965
     4.3003   4.3008   4.3017   4.3026   4.3037   4.3091   4.3101   4.3110
     4.3132   4.3143   4.3143   4.3177   4.3217   4.3245   4.3247   4.3275
     4.3276   4.3279   4.3316   4.3338   4.3416   4.3424   4.3427   4.3464
     4.3471   4.3476   4.3477   4.3500   4.3546   4.3556   4.3576   4.3578
     4.3608   4.3640   4.3651   4.3657   4.3664   4.3676   4.3687   4.3690
     4.3695   4.3706   4.3710   4.3739   4.3750   4.3751   4.3761   4.3789
     4.3795   4.3803   4.3823   4.3831   4.3840   4.3843   4.3846   4.3903
     4.3925   4.3928   4.3989   4.4034   4.4055   4.4065   4.4070   4.4086
     4.4103   4.4111   4.4143   4.4166   4.4279   4.4298   4.4321   4.4339
     4.4379   4.4399   4.4425   4.4432   4.4443   4.4493   4.4515   4.4518
     4.4529   4.4537   4.4552   4.4562   4.4565   4.4571   4.4572   4.4609
     4.4632   4.4638   4.4688   4.4699   4.4757   4.4775   4.4782   4.4792
     4.4799   4.4852   4.4891   4.4903   4.4910   4.4913   4.4929   4.4938
     4.4943   4.4983   4.4991   4.4997   4.5004   4.5017   4.5089   4.5120
     4.5130   4.5143   4.5144   4.5172   4.5180   4.5187   4.5266   4.5275
     4.5285   4.5286   4.5310   4.5317   4.5372   4.5401   4.5425   4.5455
     4.5457   4.5471   4.5508   4.5515   4.5600   4.5610   4.5617   4.5626
     4.5635   4.5654   4.5666   4.5698   4.5727   4.5731   4.5740   4.5871
     4.5880   4.5888   4.5896   4.5951   4.5996   4.5997   4.6011   4.6024
     4.6028   4.6054   4.6059   4.6072   4.6080   4.6100   4.6146   4.6162
     4.6202   4.6204   4.6219   4.6225   4.6268   4.6291   4.6350   4.6354
     4.6366   4.6366   4.6393   4.6433   4.6439   4.6443   4.6539   4.6557
     4.6568   4.6595   4.6598   4.6605   4.6608   4.6634   4.6639   4.6672
     4.6674   4.6718   4.6731   4.6733   4.6740   4.6742   4.6778   4.6804
     4.6807   4.6833   4.6838   4.6907   4.6908   4.6910   4.6924   4.6939
     4.6942   4.6991   4.7000   4.7038   4.7044   4.7072   4.7102   4.7128
     4.7131   4.7167   4.7176   4.7184   4.7199   4.7244   4.7273   4.7285
     4.7299   4.7320   4.7365   4.7377   4.7412   4.7435   4.7443   4.7515
     4.7518   4.7565   4.7578   4.7580   4.7593   4.7595   4.7597   4.7638
     4.7645   4.7654   4.7666   4.7731   4.7765   4.7793   4.7868   4.7875
     4.7920   4.7929   4.7943   4.7977   4.7988   4.8020   4.8027   4.8167
     4.8195   4.8220   4.8236   4.8245   4.8315   4.8341   4.8363   4.8364
     4.8365   4.8390   4.8458   4.8462   4.8538   4.8561   4.8577   4.8592
     4.8608   4.8609   4.8627   4.8634   4.8651   4.8657   4.8687   4.8792
     4.8796   4.8803   4.8873   4.8901   4.8917   4.8971   4.8976   4.9028
     4.9054   4.9060   4.9064   4.9070   4.9077   4.9113   4.9118   4.9120
     4.9131   4.9155   4.9162   4.9197   4.9274   4.9281   4.9290   4.9323
     4.9325   4.9366   4.9380   4.9392   4.9430   4.9437   4.9449   4.9454
     4.9469   4.9488   4.9516   4.9518   4.9519   4.9534   4.9590   4.9595
     4.9641   4.9649   4.9651   4.9669   4.9690   4.9702   4.9749   4.9799
     4.9811   4.9816   4.9877   4.9905   4.9919   5.0031   5.0047   5.0047
     5.0051   5.0053   5.0058   5.0071   5.0104   5.0106   5.0108   5.0121
     5.0122   5.0139   5.0196   5.0225   5.0246   5.0247   5.0257   5.0287
     5.0322   5.0322   5.0326   5.0328   5.0356   5.0361   5.0381   5.0457
     5.0498   5.0498   5.0499   5.0512   5.0559   5.0571   5.0575   5.0582
     5.0601   5.0605   5.0631   5.0632   5.0652   5.0669   5.0672   5.0715
     5.0720   5.0788   5.0803   5.0838   5.0868   5.0896   5.0931   5.0959
     5.1023   5.1036   5.1055   5.1063   5.1090   5.1114   5.1120   5.1122
     5.1198   5.1198   5.1236   5.1255   5.1332   5.1358   5.1374   5.1395
     5.1396   5.1401   5.1419   5.1423   5.1446   5.1507   5.1512   5.1535
     5.1572   5.1602   5.1621   5.1626   5.1651   5.1696   5.1704   5.1718
     5.1731   5.1736   5.1764   5.1771   5.1810   5.1817   5.1817   5.1823
     5.1824   5.1836   5.1869   5.1896   5.1915   5.1926   5.1983   5.1995
     5.2021   5.2025   5.2064   5.2074   5.2082   5.2108   5.2112   5.2144
     5.2153   5.2175   5.2205   5.2206   5.2248   5.2258   5.2259   5.2268
     5.2284   5.2294   5.2356   5.2377   5.2404   5.2428   5.2441   5.2460
     5.2478   5.2517   5.2527   5.2551   5.2569   5.2579   5.2617   5.2621
     5.2655   5.2663   5.2684   5.2696   5.2698   5.2713   5.2717   5.2718
     5.2729   5.2730   5.2748   5.2788   5.2823   5.2827   5.2836   5.2886
     5.2893   5.2940   5.2995   5.2999   5.3012   5.3046   5.3090   5.3092
     5.3119   5.3138   5.3147   5.3155   5.3185   5.3213   5.3216   5.3278
     5.3280   5.3284   5.3287   5.3346   5.3346   5.3353   5.3357   5.3386
     5.3392   5.3407   5.3411   5.3433   5.3434   5.3436   5.3467   5.3481
     5.3509   5.3531   5.3547   5.3575   5.3594   5.3619   5.3642   5.3661
     5.3691   5.3692   5.3693   5.3707   5.3719   5.3727   5.3738   5.3740
     5.3781   5.3789   5.3819   5.3850   5.3860   5.3864   5.3897   5.3913
     5.3930   5.3950   5.3961   5.3984   5.3990   5.3995   5.4030   5.4047
     5.4068   5.4160   5.4176   5.4236   5.4255   5.4270   5.4283   5.4294
     5.4377   5.4382   5.4384   5.4402   5.4406   5.4409   5.4417   5.4446
     5.4530   5.4552   5.4571   5.4574   5.4599   5.4627   5.4660   5.4692
     5.4695   5.4754   5.4758   5.4767   5.4790   5.4794   5.4798   5.4876
     5.4881   5.4969   5.5016   5.5025   5.5050   5.5070   5.5072   5.5077
     5.5084   5.5103   5.5126   5.5126   5.5159   5.5183   5.5185   5.5187
     5.5191   5.5199   5.5219   5.5221   5.5262   5.5268   5.5334   5.5366
     5.5371   5.5380   5.5394   5.5401   5.5402   5.5464   5.5468   5.5470
     5.5472   5.5489   5.5498   5.5499   5.5536   5.5538   5.5552   5.5553
     5.5558   5.5598   5.5600   5.5605   5.5686   5.5701   5.5710   5.5758
     5.5772   5.5805   5.5821   5.5846   5.5885   5.5913   5.5930   5.5939
     5.5947   5.5948   5.5954   5.5981   5.5986   5.5995   5.6006   5.6024
     5.6035   5.6058   5.6113   5.6143   5.6209   5.6236   5.6243   5.6289
     5.6304   5.6357   5.6407   5.6427   5.6435   5.6453   5.6455   5.6456
     5.6462   5.6509   5.6522   5.6551   5.6589   5.6601   5.6604   5.6668
     5.6720   5.6727   5.6748   5.6756   5.6766   5.6778   5.6804   5.6805
     5.6820   5.6835   5.6840   5.6851   5.6867   5.6949   5.6950   5.6981
     5.6987   5.7036   5.7073   5.7074   5.7113   5.7121   5.7141   5.7159
     5.7189   5.7226   5.7240   5.7251   5.7252   5.7258   5.7264   5.7283
     5.7283   5.7301   5.7370   5.7381   5.7381   5.7423   5.7429   5.7430
     5.7483   5.7567   5.7601   5.7619   5.7644   5.7683   5.7707   5.7712
     5.7714   5.7753   5.7777   5.7783   5.7810   5.7832   5.7888   5.7904
     5.7912   5.7925   5.7927   5.7948   5.7991   5.7994   5.7995   5.8001
     5.8069   5.8080   5.8082   5.8082   5.8164   5.8174   5.8215   5.8220
     5.8226   5.8271   5.8305   5.8344   5.8349   5.8372   5.8375   5.8387
     5.8399   5.8418   5.8426   5.8440   5.8446   5.8542   5.8573   5.8582
     5.8597   5.8597   5.8597   5.8597   5.8610   5.8626   5.8646   5.8674
     5.8689   5.8701   5.8765   5.8799   5.8856   5.8858   5.8916   5.8937
     5.8944   5.8949   5.8962   5.8994   5.9038   5.9042   5.9077   5.9116
     5.9138   5.9164   5.9165   5.9180   5.9184   5.9204   5.9206   5.9226
     5.9249   5.9251   5.9256   5.9276   5.9291   5.9295   5.9307   5.9310
     5.9317   5.9356   5.9361   5.9369   5.9424   5.9467   5.9471   5.9512
     5.9537   5.9538   5.9551   5.9556   5.9563   5.9592   5.9610   5.9666
     5.9706   5.9724   5.9742   5.9748   5.9773   5.9778   5.9791   5.9799
     5.9802   5.9802   5.9830   5.9883   5.9897   5.9901   5.9907   5.9920
     5.9984   5.9996   6.0008   6.0047   6.0092   6.0115   6.0168   6.0170
     6.0239   6.0247   6.0278   6.0294   6.0311   6.0344   6.0353   6.0368
     6.0372   6.0399   6.0399   6.0446   6.0453   6.0476   6.0494   6.0501
     6.0502   6.0506   6.0515   6.0564   6.0573   6.0573   6.0580   6.0584
     6.0591   6.0591   6.0609   6.0680   6.0693   6.0725   6.0739   6.0745
     6.0752   6.0753   6.0781   6.0782   6.0791   6.0876   6.0877   6.0883
     6.0899   6.0900   6.0906   6.0935   6.0950   6.0970   6.0976   6.0981
     6.1006   6.1011   6.1042   6.1056   6.1067   6.1073   6.1073   6.1092
     6.1107   6.1125   6.1127   6.1150   6.1168   6.1176   6.1178   6.1199
     6.1211   6.1221   6.1232   6.1332   6.1369   6.1386   6.1405   6.1413
     6.1428   6.1459   6.1463   6.1466   6.1482   6.1483   6.1484   6.1501
     6.1503   6.1524   6.1542   6.1545   6.1557   6.1576   6.1617   6.1620
     6.1621   6.1627   6.1651   6.1656   6.1673   6.1680   6.1688   6.1697
     6.1703   6.1706   6.1727   6.1730   6.1745   6.1790   6.1811   6.1817
     6.1834   6.1838   6.1849   6.1853   6.1864   6.1866   6.1882   6.1887
     6.1890   6.1897   6.1899   6.1925   6.1978   6.1990   6.1992   6.2024
     6.2029   6.2036   6.2058   6.2061   6.2070   6.2089   6.2089   6.2100
     6.2131   6.2136   6.2159   6.2174   6.2175   6.2183   6.2200   6.2205
     6.2233   6.2235   6.2235   6.2236   6.2278   6.2293   6.2296   6.2318
     6.2329   6.2333   6.2336   6.2342   6.2342   6.2352   6.2357   6.2362
     6.2379   6.2379   6.2384   6.2397   6.2404   6.2407   6.2426   6.2431
     6.2455   6.2477   6.2506   6.2511   6.2512   6.2528   6.2537   6.2548
     6.2560   6.2571   6.2603   6.2604   6.2613   6.2616   6.2631   6.2652
     6.2668   6.2675   6.2685   6.2688   6.2696   6.2719   6.2732   6.2733
     6.2742   6.2757   6.2758   6.2771   6.2796   6.2813   6.2838   6.2841
     6.2844   6.2847   6.2912   6.2924   6.2945   6.2984   6.2992   6.3033
     6.3073   6.3079   6.3108   6.3151   6.3170   6.3189   6.3194   6.3199
     6.3202   6.3217   6.3267   6.3269   6.3298   6.3304   6.3306   6.3307
     6.3311   6.3317   6.3328   6.3331   6.3361   6.3366   6.3370   6.3384
     6.3424   6.3433   6.3470   6.3473   6.3483   6.3494   6.3511   6.3511
     6.3528   6.3536   6.3570   6.3604   6.3635   6.3649   6.3649   6.3684
     6.3685   6.3712   6.3726   6.3743   6.3748   6.3753   6.3759   6.3759
     6.3780   6.3807   6.3807   6.3812   6.3846   6.3873   6.3929   6.3945
     6.3980   6.3993   6.4000   6.4003   6.4006   6.4009   6.4062   6.4065
     6.4087   6.4097   6.4103   6.4127   6.4134   6.4144   6.4258   6.4270
     6.4301   6.4318   6.4328   6.4338   6.4349   6.4358   6.4363   6.4390
     6.4423   6.4426   6.4429   6.4439   6.4483   6.4514   6.4524   6.4541
     6.4561   6.4573   6.4608   6.4608   6.4630   6.4640   6.4648   6.4649
     6.4685   6.4700   6.4705   6.4710   6.4746   6.4753   6.4792   6.4811
     6.4853   6.4865   6.4909   6.4925   6.4935   6.4965   6.5007   6.5086
     6.5114   6.5135   6.5149   6.5150   6.5158   6.5184   6.5288   6.5320
     6.5348   6.5364   6.5367   6.5375   6.5384   6.5406   6.5462   6.5465
     6.5476   6.5478   6.5489   6.5493   6.5494   6.5500   6.5506   6.5539
     6.5544   6.5599   6.5685   6.5696   6.5707   6.5739   6.5744   6.5763
     6.5768   6.5853   6.5857   6.5865   6.5880   6.5885   6.5902   6.5908
     6.5962   6.5983   6.5985   6.5991   6.5993   6.5994   6.5995   6.5998
     6.6008   6.6010   6.6032   6.6036   6.6064   6.6074   6.6087   6.6163
     6.6179   6.6209   6.6324   6.6358   6.6393   6.6401   6.6403   6.6406
     6.6450   6.6462   6.6479   6.6488   6.6555   6.6584   6.6608   6.6616
     6.6622   6.6654   6.6780   6.6858   6.7040   6.7063   6.7128   6.7172
     6.7197   6.7225   6.7254   6.7291   6.7378   6.7404   6.7580   6.7613
     6.7620   6.7748   6.7777   6.7930   6.7994   6.8162   6.8289   6.8328
     6.8336   6.8366   6.8393   6.8444   6.8507   6.8534   6.8710   6.8770
     6.8952   6.8972   6.8984   6.9050   6.9058   6.9129   6.9134   6.9182
     6.9634   6.9706   7.0213   7.0217   7.0305   7.0399   7.0408   7.0483
     7.0587   7.0698   7.0750   7.0923   7.0946   7.0964   7.1137   7.1157
     7.1172   7.1976   7.2297   7.2548   7.2803   7.2993   7.3125   7.3589
     7.3675   7.3840   7.3858   7.3888   7.4226   7.4353   7.4375   7.4390
     7.4818   7.5041   7.5070   7.5282   7.5489   7.5496   7.6079   7.6170
     7.6232   7.6361   7.6703   7.6728   7.7188   7.7261   7.7325   7.7369
     7.7387   7.7534   7.7612   7.7685   7.7885   7.7972   7.7981   7.8033
     7.8228   7.8408   7.8554   7.8677   7.8706   7.8795   7.8851   7.9039
     7.9136   7.9326   7.9966   8.0297   8.0483   8.0533   8.0565   8.0734
     8.1182   8.1461   8.1529   8.1581   8.1772   8.1805   8.1857   8.2080
     8.2133   8.2417   8.2498   8.2760   8.2799   8.3022   8.3284   8.3345
     8.3597   8.3991   8.4182   8.4184   8.4220   8.4368   8.4543   8.4646
     8.4782   8.5045   8.5193   8.5236   8.5314   8.5450   8.5567   8.5613
     8.5706   8.5801   8.5836   8.5841   8.5932   8.6105   8.6330   8.6537
     8.6924   8.7024   8.7266   8.7680   8.7842   8.7920   8.8081   8.8092
     8.8123   8.8253   8.8309   8.8402   8.8444   8.8710   8.9077   8.9174
     8.9317   8.9366   8.9371   8.9502   9.0105   9.0128   9.0203   9.0246
     9.0407   9.0539   9.0631   9.0688   9.0697   9.0955   9.1186   9.1576
     9.1892   9.2178   9.2292   9.2395   9.2478   9.2509   9.2621   9.2731
     9.2736   9.2870   9.3069   9.3075   9.3201   9.3259   9.3272   9.3284
     9.3580   9.3632   9.3840   9.3851   9.3881   9.4402   9.4417   9.4567
     9.5043   9.5472   9.5698   9.5921   9.5950   9.6042   9.6162   9.6325
     9.6420   9.6592   9.6718   9.6841   9.7047   9.7273   9.7414   9.7545
     9.7554   9.7595   9.7819   9.7890   9.7977   9.8051   9.8119   9.8211
     9.8226   9.8251   9.8285   9.8482   9.8593   9.8651   9.8793   9.8889
     9.9111   9.9637   9.9728  10.0097  10.0104  10.0142  10.0295  10.0459
    10.0517  10.0529  10.0800  10.0802  10.1039  10.1079  10.1090  10.1811
    10.1897  10.2545  10.2546  10.2716  10.3021  10.3126  10.3172  10.3539
    10.3543  10.3981  10.3990  10.4772  10.4776  10.4835  10.5076  10.5287
    10.5301  10.5331  10.5379  10.5385  10.5501  10.5693  10.6026  10.6308
    10.6320  10.6345  10.6502  10.6533  10.6534  10.6623  10.6687  10.6913
    10.7483  10.7718  10.7925  10.7975  10.8100  10.8234  10.8263  10.8422
    10.8479  10.8530  10.8572  10.8629  10.8760  10.9214  10.9563  10.9583
    10.9787  10.9800  10.9902  11.0173  11.0510  11.0569  11.0594  11.0716
    11.1165  11.1223  11.1248  11.1357  11.1409  11.1610  11.1749  11.1856
    11.1948  11.2106  11.2118  11.2170  11.2176  11.2255  11.2282  11.2309
    11.2412  11.2472  11.2645  11.2917  11.2984  11.3023  11.3053  11.3225
    11.3279  11.3312  11.3503  11.3547  11.3822  11.4053  11.4178  11.4224
    11.4238  11.4458  11.4699  11.4807  11.5089  11.5333  11.5359  11.5544
    11.5685  11.5895  11.6097  11.6424  11.6468  11.6815  11.6819  11.7128
    11.7203  11.7210  11.7226  11.7292  11.7356  11.8235  11.8268  11.8470
    11.8480  11.8548  11.8685  11.8963  11.8983  11.9138  11.9432  11.9449
    11.9764  11.9999  12.0128  12.0305  12.0432  12.0685  12.0687  12.0805
    12.1003  12.1112  12.1254  12.1395  12.1521  12.1561  12.2038  12.2340
    12.2486  12.2583  12.2616  12.2717  12.2774  12.2903  12.2928  12.3265
    12.3358  12.3383  12.3577  12.3622  12.3685  12.3705  12.3759  12.4175
    12.4436  12.4455  12.4458  12.4620  12.4625  12.5460  12.5527  12.5575
    12.5601  12.5761  12.5791  12.5903  12.5920  12.5928  12.6013  12.6130
    12.6183  12.6358  12.6358  12.6364  12.6444  12.6514  12.6556  12.6762
    12.6915  12.6939  12.7115  12.7141  12.7307  12.7320  12.7415  12.7423
    12.7591  12.7601  12.7764  12.7955  12.8178  12.8187  12.8254  12.8347
    12.8519  12.8845  12.8858  12.9018  12.9055  12.9208  12.9284  12.9671
    12.9949  13.0005  13.0088  13.0166  13.0207  13.0273  13.0299  13.0359
    13.0392  13.0454  13.0675  13.0788  13.0954  13.1171  13.1232  13.1310
    13.1435  13.1521  13.1767  13.1800  13.1803  13.2035  13.2311  13.2329
    13.2469  13.2708  13.2830  13.2854  13.2913  13.3091  13.3141  13.3306
    13.3817  13.3859  13.3900  13.4014  13.4135  13.4185  13.4279  13.4302
    13.4325  13.4657  13.4716  13.4738  13.5035  13.5063  13.5106  13.5341
    13.5498  13.5699  13.5751  13.5874  13.5912  13.6077  13.6097  13.6199
    13.6202  13.6514  13.6601  13.6739  13.6854  13.6856  13.6955  13.7060
    13.7162  13.7210  13.7288  13.7548  13.7639  13.7695  13.7712  13.7714
    13.7756  13.8006  13.8183  13.8183  13.8193  13.8244  13.8289  13.8302
    13.8325  13.8368  13.8621  13.8959  13.9031  13.9039  13.9132  13.9153
    13.9264  13.9378  13.9576  13.9730  13.9905  13.9954  13.9966  14.0050
    14.0231  14.0301  14.0310  14.0542  14.0576  14.0732  14.0855  14.1160
    14.1179  14.1196  14.1503  14.1516  14.1523  14.1566  14.1589  14.1629
    14.1632  14.1649  14.1874  14.1920  14.2047  14.2508  14.2527  14.2827
    14.2910  14.2958  14.3036  14.3120  14.3279  14.3299  14.3472  14.3717
    14.3821  14.3842  14.4015  14.4023  14.4066  14.4102  14.4229  14.4260
    14.4580  14.4596  14.4621  14.5046  14.5058  14.5119  14.5783  14.5838
    14.6059  14.6316  14.6475

          k = 0.1250 0.3248 0.0000 (330368 PWs)   bands (ev):

    -0.7617  -0.6490  -0.4208  -0.3199  -0.3101  -0.2139  -0.0394  -0.0070
     0.0118   0.0602   0.0750   0.1145   0.1832   0.2831   0.2873   0.3130
     0.3782   0.3947   0.4957   0.5925   0.5935   0.6341   0.6504   0.6781
     0.6967   0.7539   0.7568   0.7785   0.8415   0.9033   0.9191   0.9615
     1.0326   1.0618   1.0624   1.1035   1.1355   1.1550   1.1669   1.1737
     1.1947   1.2789   1.3077   1.3100   1.3200   1.3290   1.3460   1.3526
     1.3707   1.3856   1.4011   1.4198   1.4418   1.4494   1.4734   1.4891
     1.4898   1.5424   1.5445   1.5541   1.5813   1.5821   1.5853   1.5919
     1.5998   1.6067   1.6094   1.6252   1.6253   1.6297   1.6527   1.6541
     1.6564   1.6587   1.6606   1.6696   1.6757   1.6824   1.7026   1.7040
     1.7127   1.7181   1.7262   1.7403   1.7705   1.7857   1.8005   1.8061
     1.8071   1.8073   1.8180   1.8373   1.8454   1.8575   1.8602   1.8624
     1.8699   1.8725   1.8726   1.8764   1.8849   1.8886   1.8930   1.9072
     1.9089   1.9136   1.9159   1.9213   1.9295   1.9331   1.9382   1.9414
     1.9519   1.9559   1.9577   1.9593   1.9599   1.9663   1.9726   1.9823
     1.9845   1.9861   1.9873   1.9905   1.9929   2.0091   2.0158   2.0250
     2.0261   2.0265   2.0330   2.0369   2.0402   2.0460   2.0512   2.0572
     2.0599   2.0601   2.0603   2.0703   2.0725   2.0776   2.0796   2.0869
     2.0874   2.0921   2.1022   2.1173   2.1210   2.1212   2.1307   2.1363
     2.1389   2.1434   2.1449   2.1460   2.1461   2.1465   2.1466   2.1493
     2.1499   2.1548   2.1586   2.1592   2.1596   2.1624   2.1626   2.1632
     2.1643   2.1718   2.1735   2.1744   2.1862   2.1935   2.1964   2.2021
     2.2023   2.2025   2.2047   2.2101   2.2107   2.2111   2.2135   2.2150
     2.2159   2.2186   2.2230   2.2306   2.2311   2.2333   2.2369   2.2374
     2.2442   2.2448   2.2470   2.2524   2.2528   2.2541   2.2555   2.2564
     2.2583   2.2637   2.2725   2.2835   2.2852   2.2858   2.2885   2.2950
     2.2951   2.3002   2.3115   2.3157   2.3258   2.3273   2.3331   2.3349
     2.3368   2.3373   2.3402   2.3411   2.3421   2.3483   2.3489   2.3521
     2.3555   2.3606   2.3668   2.3669   2.3702   2.3717   2.3748   2.3786
     2.3800   2.3806   2.3839   2.3851   2.3858   2.3865   2.3878   2.3895
     2.3920   2.3927   2.3927   2.3953   2.3954   2.4068   2.4149   2.4245
     2.4326   2.4331   2.4390   2.4502   2.4505   2.4523   2.4528   2.4577
     2.4581   2.4593   2.4600   2.4609   2.4636   2.4655   2.4664   2.4699
     2.4703   2.4758   2.4759   2.4831   2.4894   2.4897   2.4968   2.5005
     2.5019   2.5030   2.5077   2.5082   2.5113   2.5132   2.5145   2.5167
     2.5212   2.5215   2.5226   2.5235   2.5281   2.5282   2.5296   2.5328
     2.5339   2.5413   2.5439   2.5443   2.5464   2.5507   2.5519   2.5574
     2.5603   2.5607   2.5663   2.5697   2.5722   2.5770   2.5774   2.5784
     2.5790   2.5883   2.5896   2.5927   2.5945   2.5956   2.6025   2.6076
     2.6081   2.6083   2.6086   2.6100   2.6109   2.6124   2.6124   2.6131
     2.6142   2.6170   2.6202   2.6228   2.6237   2.6352   2.6361   2.6433
     2.6466   2.6471   2.6473   2.6488   2.6500   2.6516   2.6520   2.6551
     2.6655   2.6684   2.6686   2.6755   2.6763   2.6770   2.6781   2.6794
     2.6800   2.6844   2.6849   2.6869   2.6891   2.6919   2.6929   2.6943
     2.6948   2.6953   2.7020   2.7040   2.7146   2.7158   2.7242   2.7288
     2.7317   2.7321   2.7340   2.7341   2.7345   2.7400   2.7415   2.7431
     2.7444   2.7484   2.7530   2.7584   2.7607   2.7615   2.7663   2.7767
     2.7789   2.7820   2.7891   2.7892   2.7897   2.7904   2.7921   2.7935
     2.7980   2.8034   2.8041   2.8055   2.8057   2.8154   2.8177   2.8238
     2.8274   2.8278   2.8282   2.8329   2.8364   2.8390   2.8414   2.8462
     2.8492   2.8504   2.8516   2.8520   2.8577   2.8602   2.8626   2.8641
     2.8691   2.8760   2.8811   2.8885   2.8933   2.8936   2.8941   2.8974
     2.8994   2.9005   2.9019   2.9052   2.9059   2.9096   2.9151   2.9174
     2.9175   2.9265   2.9332   2.9438   2.9450   2.9462   2.9506   2.9514
     2.9514   2.9536   2.9556   2.9572   2.9619   2.9620   2.9684   2.9704
     2.9711   2.9769   2.9771   2.9805   2.9865   2.9867   2.9920   2.9924
     2.9928   2.9936   3.0103   3.0133   3.0238   3.0295   3.0399   3.0452
     3.0460   3.0509   3.0534   3.0651   3.0697   3.0727   3.0759   3.0783
     3.0795   3.0849   3.0857   3.0895   3.0943   3.0956   3.0978   3.0990
     3.1002   3.1099   3.1119   3.1146   3.1147   3.1165   3.1223   3.1245
     3.1250   3.1322   3.1330   3.1423   3.1434   3.1436   3.1459   3.1484
     3.1512   3.1582   3.1647   3.1698   3.1708   3.1720   3.1737   3.1827
     3.1864   3.1866   3.1918   3.1956   3.2041   3.2060   3.2075   3.2078
     3.2128   3.2132   3.2180   3.2182   3.2213   3.2223   3.2228   3.2249
     3.2276   3.2284   3.2370   3.2375   3.2378   3.2449   3.2484   3.2519
     3.2586   3.2620   3.2636   3.2651   3.2679   3.2693   3.2708   3.2714
     3.2715   3.2723   3.2737   3.2747   3.2763   3.2777   3.2784   3.2842
     3.2845   3.2862   3.2870   3.2879   3.2903   3.2918   3.2929   3.2945
     3.3009   3.3026   3.3040   3.3079   3.3101   3.3118   3.3149   3.3161
     3.3178   3.3301   3.3322   3.3335   3.3357   3.3369   3.3369   3.3370
     3.3423   3.3424   3.3426   3.3426   3.3504   3.3580   3.3595   3.3604
     3.3605   3.3608   3.3639   3.3679   3.3685   3.3692   3.3712   3.3713
     3.3738   3.3755   3.3763   3.3769   3.3861   3.3924   3.4038   3.4098
     3.4101   3.4121   3.4135   3.4139   3.4143   3.4181   3.4191   3.4255
[...]
     atom  202 type  1   force =    -0.00000112    0.00019606   -0.00056921
     atom  203 type  1   force =     0.00000000    0.00019588   -0.00056936
     atom  204 type  1   force =     0.00000000    0.00019577   -0.00056937
     atom  205 type  1   force =     0.00000000    0.00019582   -0.00056936
     atom  206 type  1   force =     0.00000112    0.00019612   -0.00056920
     atom  207 type  1   force =     0.00000111    0.00019602   -0.00056923
     atom  208 type  1   force =    -0.00000113    0.00019612   -0.00056920
     atom  209 type  1   force =    -0.00000112    0.00019602   -0.00056922
     atom  210 type  1   force =     0.00000000    0.00019574   -0.00056935
     atom  211 type  1   force =     0.00000000    0.00019589   -0.00056934
     atom  212 type  1   force =     0.00000000    0.00019577   -0.00056937
     atom  213 type  1   force =     0.00000000    0.00019581   -0.00056934
     atom  214 type  1   force =     0.00000070   -0.00018698    0.00040484
     atom  215 type  1   force =     0.00000112    0.00019606   -0.00056921
     atom  216 type  1   force =    -0.00000113    0.00019606   -0.00056921
     atom  217 type  1   force =     0.00000083    0.00018871   -0.00040751
     atom  218 type  1   force =    -0.00000082    0.00018870   -0.00040753
     atom  219 type  1   force =     0.00000000    0.00018817   -0.00040698
     atom  220 type  1   force =    -0.00000119   -0.00019472    0.00056794
     atom  221 type  1   force =    -0.00000001   -0.00019584    0.00056699
     atom  222 type  1   force =     0.00000001   -0.00019583    0.00056699
     atom  223 type  1   force =     0.00000001   -0.00019584    0.00056699
     atom  224 type  1   force =     0.00000083    0.00018865   -0.00040746
     atom  225 type  1   force =     0.00000083    0.00018864   -0.00040750
     atom  226 type  1   force =     0.00000080    0.00018862   -0.00040751
     atom  227 type  1   force =    -0.00000082    0.00018867   -0.00040748
     atom  228 type  1   force =    -0.00000083    0.00018864   -0.00040751
     atom  229 type  1   force =    -0.00000082    0.00018863   -0.00040750
     atom  230 type  1   force =     0.00000000    0.00018810   -0.00040690
     atom  231 type  1   force =     0.00000000    0.00018808   -0.00040695
     atom  232 type  1   force =     0.00000000    0.00018808   -0.00040697
     atom  233 type  1   force =     0.00000082    0.00018870   -0.00040753
     atom  234 type  1   force =     0.00000082    0.00018867   -0.00040748
     atom  235 type  1   force =     0.00000083    0.00018864   -0.00040751
     atom  236 type  1   force =     0.00000082    0.00018863   -0.00040750
     atom  237 type  1   force =    -0.00000083    0.00018871   -0.00040751
     atom  238 type  1   force =    -0.00000083    0.00018865   -0.00040746
     atom  239 type  1   force =    -0.00000083    0.00018864   -0.00040750
     atom  240 type  1   force =     0.00000000    0.00018816   -0.00040695
     atom  241 type  1   force =     0.00000000    0.00018809   -0.00040690
     atom  242 type  1   force =     0.00000000    0.00018810   -0.00040698
     atom  243 type  1   force =    -0.00000118   -0.00019474    0.00056795
     atom  244 type  1   force =    -0.00000118   -0.00019473    0.00056793
     atom  245 type  1   force =    -0.00000118   -0.00019478    0.00056790
     atom  246 type  1   force =    -0.00000001   -0.00019584    0.00056698
     atom  247 type  1   force =     0.00000000   -0.00019588    0.00056693
     atom  248 type  1   force =     0.00000119   -0.00019472    0.00056794
     atom  249 type  1   force =     0.00000120   -0.00019473    0.00056797
     atom  250 type  1   force =     0.00000118   -0.00019474    0.00056794
     atom  251 type  1   force =     0.00000118   -0.00019478    0.00056790
     atom  252 type  1   force =    -0.00000119   -0.00019472    0.00056794
     atom  253 type  1   force =    -0.00000120   -0.00019473    0.00056797
     atom  254 type  1   force =    -0.00000118   -0.00019474    0.00056794
     atom  255 type  1   force =    -0.00000001   -0.00019583    0.00056699
     atom  256 type  1   force =     0.00000001   -0.00019584    0.00056698
     atom  257 type  1   force =     0.00000119   -0.00019472    0.00056794
     atom  258 type  1   force =     0.00000118   -0.00019474    0.00056795
     atom  259 type  1   force =     0.00000118   -0.00019473    0.00056793
     atom  260 type  1   force =    -0.00000080    0.00018862   -0.00040751
     atom  261 type  1   force =     0.00000000    0.00018808   -0.00040695
     atom  262 type  1   force =    -0.00000118   -0.00019478    0.00056790
     atom  263 type  1   force =    -0.00000000   -0.00019588    0.00056693
     atom  264 type  1   force =     0.00000118   -0.00019478    0.00056790
     atom  265 type  1   force =     0.00000000    0.00045389    0.00055900
     atom  266 type  1   force =     0.00000000    0.00045383    0.00055896
     atom  267 type  1   force =     0.00000127    0.00045413    0.00055781
     atom  268 type  1   force =     0.00000127    0.00045410    0.00055777
     atom  269 type  1   force =    -0.00000128    0.00045412    0.00055780
     atom  270 type  1   force =     0.00000000    0.00045387    0.00055898
     atom  271 type  1   force =     0.00000128    0.00045412    0.00055780
     atom  272 type  1   force =    -0.00000033   -0.00028775    0.00078697
     atom  273 type  1   force =    -0.00000000   -0.00028736    0.00078805
     atom  274 type  1   force =     0.00000032   -0.00028775    0.00078697
     atom  275 type  1   force =     0.00000000    0.00045382    0.00055896
     atom  276 type  1   force =     0.00000128    0.00045407    0.00055780
     atom  277 type  1   force =     0.00000127    0.00045405    0.00055776
     atom  278 type  1   force =    -0.00000127    0.00045407    0.00055778
     atom  279 type  1   force =    -0.00000127    0.00045405    0.00055778
     atom  280 type  1   force =     0.00000000    0.00045379    0.00055894
     atom  281 type  1   force =     0.00000000    0.00045381    0.00055896
     atom  282 type  1   force =     0.00000128    0.00045407    0.00055778
     atom  283 type  1   force =     0.00000127    0.00045407    0.00055778
     atom  284 type  1   force =     0.00000127    0.00045405    0.00055778
     atom  285 type  1   force =    -0.00000127    0.00045410    0.00055777
     atom  286 type  1   force =    -0.00000128    0.00045407    0.00055780
     atom  287 type  1   force =    -0.00000127    0.00045405    0.00055776
     atom  288 type  1   force =    -0.00000032   -0.00028776    0.00078693
     atom  289 type  1   force =    -0.00000031   -0.00028778    0.00078697
     atom  290 type  1   force =    -0.00000032   -0.00028782    0.00078695
     atom  291 type  1   force =    -0.00000001   -0.00028737    0.00078801
     atom  292 type  1   force =    -0.00000001   -0.00028741    0.00078802
     atom  293 type  1   force =    -0.00000001   -0.00028745    0.00078802
     atom  294 type  1   force =     0.00000032   -0.00028775    0.00078692
     atom  295 type  1   force =     0.00000032   -0.00028779    0.00078696
     atom  296 type  1   force =     0.00000031   -0.00028783    0.00078694
     atom  297 type  1   force =    -0.00000032   -0.00028775    0.00078697
     atom  298 type  1   force =    -0.00000032   -0.00028775    0.00078692
     atom  299 type  1   force =    -0.00000032   -0.00028779    0.00078696
     atom  300 type  1   force =    -0.00000031   -0.00028783    0.00078694
     atom  301 type  1   force =     0.00000000   -0.00028736    0.00078805
     atom  302 type  1   force =     0.00000001   -0.00028737    0.00078801
     atom  303 type  1   force =     0.00000001   -0.00028741    0.00078802
     atom  304 type  1   force =     0.00000033   -0.00028775    0.00078697
     atom  305 type  1   force =     0.00000032   -0.00028776    0.00078693
     atom  306 type  1   force =     0.00000031   -0.00028778    0.00078697
     atom  307 type  1   force =     0.00000000    0.00045383    0.00055898
     atom  308 type  1   force =    -0.00000128    0.00045407    0.00055778
     atom  309 type  1   force =     0.00000000    0.00045383    0.00055894
     atom  310 type  1   force =    -0.00000127    0.00045413    0.00055781
     atom  311 type  1   force =     0.00000001   -0.00028745    0.00078802
     atom  312 type  1   force =     0.00000032   -0.00028782    0.00078695
     atom  313 type  1   force =     0.00000037   -0.00056124    0.00392480
     atom  314 type  1   force =     0.00000001   -0.00056159    0.00392210
     atom  315 type  1   force =    -0.00000037   -0.00056122    0.00392481
     atom  316 type  1   force =     0.00000039   -0.00056134    0.00392482
     atom  317 type  1   force =     0.00000001   -0.00056167    0.00392210
     atom  318 type  1   force =    -0.00000039   -0.00056135    0.00392482
     atom  319 type  1   force =     0.00000100    0.00053349   -0.00449270
     atom  320 type  1   force =    -0.00000102    0.00053361   -0.00449268
     atom  321 type  1   force =     0.00000000    0.00053309   -0.00449220
     atom  322 type  1   force =     0.00000102    0.00053361   -0.00449268
     atom  323 type  1   force =    -0.00000100    0.00053350   -0.00449268
     atom  324 type  1   force =     0.00000000    0.00053297   -0.00449219
     atom  325 type  1   force =     0.00000036   -0.00056128    0.00392477
     atom  326 type  1   force =     0.00000039   -0.00056135    0.00392482
     atom  327 type  1   force =     0.00000037   -0.00056123    0.00392479
     atom  328 type  1   force =    -0.00000001   -0.00056163    0.00392206
     atom  329 type  1   force =    -0.00000001   -0.00056167    0.00392210
     atom  330 type  1   force =    -0.00000039   -0.00056127    0.00392475
     atom  331 type  1   force =    -0.00000039   -0.00056134    0.00392482
     atom  332 type  1   force =     0.00000039   -0.00056127    0.00392475
     atom  333 type  1   force =     0.00000037   -0.00056122    0.00392481
     atom  334 type  1   force =     0.00000001   -0.00056163    0.00392206
     atom  335 type  1   force =    -0.00000036   -0.00056128    0.00392477
     atom  336 type  1   force =     0.00000100    0.00053350   -0.00449268
     atom  337 type  1   force =     0.00000101    0.00053360   -0.00449268
     atom  338 type  1   force =     0.00000101    0.00053354   -0.00449270
     atom  339 type  1   force =    -0.00000101    0.00053351   -0.00449269
     atom  340 type  1   force =    -0.00000101    0.00053350   -0.00449270
     atom  341 type  1   force =     0.00000000    0.00053296   -0.00449223
     atom  342 type  1   force =     0.00000000    0.00053298   -0.00449222
     atom  343 type  1   force =     0.00000101    0.00053351   -0.00449269
     atom  344 type  1   force =     0.00000101    0.00053350   -0.00449270
     atom  345 type  1   force =    -0.00000101    0.00053360   -0.00449268
     atom  346 type  1   force =     0.00000000    0.00053309   -0.00449219
     atom  347 type  1   force =     0.00000000   -0.00056156    0.00392209
     atom  348 type  1   force =    -0.00000038   -0.00056125    0.00392477
     atom  349 type  1   force =     0.00000038   -0.00056125    0.00392477
     atom  350 type  1   force =    -0.00000001   -0.00056159    0.00392210
     atom  351 type  1   force =    -0.00000000   -0.00056156    0.00392209
     atom  352 type  1   force =    -0.00000037   -0.00056124    0.00392480
     atom  353 type  1   force =    -0.00000037   -0.00056123    0.00392479
     atom  354 type  1   force =    -0.00000102    0.00053353   -0.00449272
     atom  355 type  1   force =     0.00000000    0.00053301   -0.00449221
     atom  356 type  1   force =     0.00000102    0.00053353   -0.00449272
     atom  357 type  1   force =    -0.00000100    0.00053349   -0.00449270
     atom  358 type  1   force =    -0.00000101    0.00053354   -0.00449270
     atom  359 type  1   force =     0.00000000    0.00053297   -0.00449224
     atom  360 type  1   force =     0.00000000    0.00053303   -0.00449218
     atom  361 type  1   force =    -0.00000009   -0.00334697    0.01663605
     atom  362 type  1   force =     0.00000015   -0.00334698    0.01663605
     atom  363 type  1   force =     0.00000000   -0.00334828    0.01663942
     atom  364 type  1   force =    -0.00000012   -0.00334691    0.01663613
     atom  365 type  1   force =     0.00000014   -0.00334696    0.01663612
     atom  366 type  1   force =     0.00000000   -0.00334826    0.01663932
     atom  367 type  1   force =    -0.00000053    0.00158767    0.00972238
     atom  368 type  1   force =     0.00000001    0.00158861    0.00972543
     atom  369 type  1   force =     0.00000056    0.00158767    0.00972241
     atom  370 type  1   force =    -0.00000056    0.00158767    0.00972241
     atom  371 type  1   force =     0.00000003    0.00158866    0.00972540
     atom  372 type  1   force =     0.00000055    0.00158776    0.00972239
     atom  373 type  1   force =    -0.00000014   -0.00334684    0.01663604
     atom  374 type  1   force =    -0.00000014   -0.00334696    0.01663612
     atom  375 type  1   force =    -0.00000017   -0.00334697    0.01663602
     atom  376 type  1   force =     0.00000011   -0.00334683    0.01663602
     atom  377 type  1   force =     0.00000012   -0.00334691    0.01663613
     atom  378 type  1   force =     0.00000000   -0.00334824    0.01663931
     atom  379 type  1   force =     0.00000000   -0.00334839    0.01663934
     atom  380 type  1   force =    -0.00000011   -0.00334683    0.01663602
     atom  381 type  1   force =    -0.00000015   -0.00334698    0.01663605
     atom  382 type  1   force =     0.00000014   -0.00334684    0.01663604
     atom  383 type  1   force =     0.00000000   -0.00334833    0.01663943
     atom  384 type  1   force =    -0.00000055    0.00158776    0.00972239
     atom  385 type  1   force =    -0.00000055    0.00158769    0.00972243
     atom  386 type  1   force =    -0.00000058    0.00158766    0.00972237
     atom  387 type  1   force =    -0.00000003    0.00158866    0.00972540
     atom  388 type  1   force =    -0.00000001    0.00158861    0.00972535
     atom  389 type  1   force =     0.00000055    0.00158775    0.00972240
     atom  390 type  1   force =     0.00000056    0.00158764    0.00972238
     atom  391 type  1   force =    -0.00000055    0.00158775    0.00972240
     atom  392 type  1   force =    -0.00000056    0.00158764    0.00972238
     atom  393 type  1   force =    -0.00000001    0.00158861    0.00972543
     atom  394 type  1   force =     0.00000055    0.00158769    0.00972243
     atom  395 type  1   force =     0.00000010   -0.00334696    0.01663599
     atom  396 type  1   force =     0.00000000   -0.00334839    0.01663926
     atom  397 type  1   force =    -0.00000010   -0.00334696    0.01663599
     atom  398 type  1   force =     0.00000009   -0.00334697    0.01663605
     atom  399 type  1   force =     0.00000017   -0.00334697    0.01663602
     atom  400 type  1   force =     0.00000000   -0.00334839    0.01663935
     atom  401 type  1   force =     0.00000000   -0.00334836    0.01663932
     atom  402 type  1   force =    -0.00000004    0.00158859    0.00972531
     atom  403 type  1   force =     0.00000052    0.00158767    0.00972230
     atom  404 type  1   force =    -0.00000052    0.00158767    0.00972230
     atom  405 type  1   force =     0.00000001    0.00158861    0.00972535
     atom  406 type  1   force =     0.00000004    0.00158859    0.00972531
     atom  407 type  1   force =     0.00000053    0.00158767    0.00972238
     atom  408 type  1   force =     0.00000058    0.00158766    0.00972237
     atom  409 type  1   force =    -0.00000046    0.00165163   -0.02670384
     atom  410 type  1   force =     0.00000001    0.00165157   -0.02669737
     atom  411 type  1   force =     0.00000050    0.00165165   -0.02670388
     atom  412 type  1   force =    -0.00000050    0.00165165   -0.02670388
     atom  413 type  1   force =     0.00000000    0.00165158   -0.02669727
     atom  414 type  1   force =     0.00000049    0.00165175   -0.02670388
     atom  415 type  1   force =    -0.00000049    0.00165175   -0.02670388
     atom  416 type  1   force =    -0.00000045    0.00165166   -0.02670388
     atom  417 type  1   force =    -0.00000050    0.00165163   -0.02670377
     atom  418 type  1   force =     0.00000000    0.00165163   -0.02669739
     atom  419 type  1   force =    -0.00000000    0.00165158   -0.02669727
     atom  420 type  1   force =     0.00000049    0.00165186   -0.02670390
     atom  421 type  1   force =     0.00000043    0.00165159   -0.02670381
     atom  422 type  1   force =    -0.00000049    0.00165186   -0.02670390
     atom  423 type  1   force =    -0.00000043    0.00165159   -0.02670381
     atom  424 type  1   force =    -0.00000000    0.00165163   -0.02669739
     atom  425 type  1   force =     0.00000045    0.00165166   -0.02670388
     atom  426 type  1   force =    -0.00000043    0.00165164   -0.02670387
     atom  427 type  1   force =     0.00000009    0.00165155   -0.02669737
     atom  428 type  1   force =     0.00000050    0.00165163   -0.02670377
     atom  429 type  1   force =    -0.00000009    0.00165155   -0.02669737
     atom  430 type  1   force =     0.00000043    0.00165164   -0.02670387
     atom  431 type  1   force =    -0.00000001    0.00165157   -0.02669737
     atom  432 type  1   force =     0.00000046    0.00165163   -0.02670384

     Total force =     0.233842     Total SCF correction =     0.004885
 
     init_run     :    610.28s CPU     91.50s WALL (       1 calls)
     electrons    :  48299.61s CPU   6802.04s WALL (       1 calls)
     forces       :    316.08s CPU     47.89s WALL (       1 calls)

     Called by init_run:
     wfcinit      :    590.90s CPU     84.36s WALL (       1 calls)
     potinit      :      6.29s CPU      0.84s WALL (       1 calls)
     hinit0       :      7.64s CPU      2.31s WALL (       1 calls)

     Called by electrons:
     c_bands      :  45398.71s CPU   6396.26s WALL (      24 calls)
     sum_band     :   2732.44s CPU    380.48s WALL (      24 calls)
     v_of_rho     :     82.61s CPU     10.94s WALL (      24 calls)
     newd         :     47.99s CPU      8.21s WALL (      24 calls)
     mix_rho      :     24.17s CPU      3.20s WALL (      24 calls)

     Called by c_bands:
     init_us_2    :     67.39s CPU      9.31s WALL (      49 calls)
     cegterg      :  44613.32s CPU   5854.50s WALL (      24 calls)

     Called by *egterg:
     cdiaghg      :  16822.55s CPU   2220.81s WALL (     218 calls)
     h_psi        :  11216.62s CPU   1480.67s WALL (     220 calls)
     s_psi        :   3657.91s CPU    460.01s WALL (     220 calls)
     g_psi        :     17.15s CPU      2.16s WALL (     195 calls)

     Called by h_psi:
     h_psi:calbec :   3540.09s CPU    499.83s WALL (     220 calls)
     vloc_psi     :   4094.22s CPU    527.41s WALL (     220 calls)
     add_vuspsi   :   3543.53s CPU    446.00s WALL (     220 calls)

     General routines
     calbec       :   5302.36s CPU    751.65s WALL (     248 calls)
     fft          :     46.79s CPU      6.27s WALL (     322 calls)
     ffts         :      3.24s CPU      0.43s WALL (      48 calls)
     fftw         :   4631.90s CPU    598.47s WALL (  377640 calls)
     interpolate  :      6.33s CPU      0.83s WALL (      24 calls)
 
     Parallel routines
     fft_scatt_xy :    561.27s CPU     70.69s WALL (  378010 calls)
     fft_scatt_yz :   2286.23s CPU    303.59s WALL (  378010 calls)
 
     PWSCF        :     13h40m CPU      1h55m WALL

 
   This run was terminated on:  21:45:31  20Sep2021            

=------------------------------------------------------------------------------=
   JOB DONE.
=------------------------------------------------------------------------------=
