
     Program PWSCF v.6.6 starts on 20Sep2021 at 17:26:52 

     This program is part of the open-source Quantum ESPRESSO suite
     for quantum simulation of materials; please cite
         "P. Giannozzi et al., J. Phys.:Condens. Matter 21 395502 (2009);
         "P. Giannozzi et al., J. Phys.:Condens. Matter 29 465901 (2017);
          URL http://www.quantum-espresso.org", 
     in publications or presentations arising from this work. More details at
     http://www.quantum-espresso.org/quote

     Parallel version (MPI & OpenMP), running on     768 processor cores
     Number of MPI processes:               192
     Threads/MPI process:                     4

     MPI processes distributed on    16 nodes
     K-points division:     npool     =       8
     R & G space division:  proc/nbgrp/npool/nimage =      24
     Fft bands division:     nmany     =       1
     Reading input from ../inputs/input_ausurf_288

     Current dimensions of program PWSCF are:
     Max number of different atomic species (ntypx) = 10
     Max number of k-points (npk) =  40000
     Max angular momentum in pseudopotentials (lmaxx) =  3

     Subspace diagonalization in iterative solution of the eigenvalue problem:
     one sub-group per band group will be used
     ELPA distributed-memory algorithm (size of sub-group:  4*  4 procs)

     Found symmetry operation: I + (  0.2500  0.0000  0.0000)
     This is a supercell, fractional translations are disabled
     Message from routine divide_et_impera:
     suboptimal parallelization: some nodes have no k-points
 
     Parallelization info
     --------------------
     sticks:   dense  smooth     PW     G-vecs:    dense   smooth      PW
     Min         999     456    118               237527    73422    9804
     Max        1000     457    119               237536    73429    9815
     Sum       23985   10951   2855              5700737  1762171  235477
 

     Title: 
      Ausurf                                                                    


     bravais-lattice index     =            8
     lattice parameter (alat)  =      22.2988  a.u.
     unit-cell volume          =   51555.9485 (a.u.)^3
     number of atoms/cell      =          288
     number of atomic types    =            1
     number of electrons       =      3168.00
     number of Kohn-Sham states=         1901
     kinetic-energy cutoff     =      40.0000  Ry
     charge density cutoff     =     350.0000  Ry
     convergence threshold     =      1.0E-06
     mixing beta               =       0.7000
     number of iterations used =            8  TF        mixing
     Exchange-correlation=  SLA  PW   PBE  PBE
                           (   1   4   3   4   0   0   0)

     celldm(1)=  22.298768  celldm(2)=   1.732051  celldm(3)=   2.684575
     celldm(4)=   0.000000  celldm(5)=   0.000000  celldm(6)=   0.000000

     crystal axes: (cart. coord. in units of alat)
               a(1) = (   1.000000   0.000000   0.000000 )  
               a(2) = (   0.000000   1.732051   0.000000 )  
               a(3) = (   0.000000   0.000000   2.684575 )  

     reciprocal axes: (cart. coord. in units 2 pi/alat)
               b(1) = (  1.000000  0.000000  0.000000 )  
               b(2) = (  0.000000  0.577350  0.000000 )  
               b(3) = (  0.000000  0.000000  0.372498 )  


     PseudoPot. # 1 for Au read from file:
     /marconi/home/userexternal/czeni000/dft_src/pseudo/Au.pbe-nd-van.UPF
     MD5 check sum: deb5c07af10777505a79e28f5b4b4115
     Pseudo is Ultrasoft + core correction, Zval = 11.0
     Generated by new atomic code, or converted to UPF format
     Using radial grid of  985 points,  3 beta functions with: 
                l(1) =   1
                l(2) =   2
                l(3) =   2
     Q(r) pseudized with  8 coefficients,  rinner =    1.100   1.100   1.100
                                                       1.100   1.100

     atomic species   valence    mass     pseudopotential
        Au            11.00   196.96000     Au( 1.00)

      2 Sym. Ops. (no inversion) found



   Cartesian axes

     site n.     atom                  positions (alat units)
         1           Au  tau(   1) = (   0.0000000   0.0000000   0.0000000  )
         2           Au  tau(   2) = (   0.2500000   0.0000000   0.0000000  )
         3           Au  tau(   3) = (   0.5000000   0.0000000   0.0000000  )
         4           Au  tau(   4) = (   0.0000000   0.4330127   0.0000000  )
         5           Au  tau(   5) = (   0.7500000   0.0000000   0.0000000  )
         6           Au  tau(   6) = (   0.2500000   0.4330127   0.0000000  )
         7           Au  tau(   7) = (   0.5000000   0.4330127   0.0000000  )
         8           Au  tau(   8) = (   0.0000000   0.8660254   0.0000000  )
         9           Au  tau(   9) = (   0.7500000   0.4330127   0.0000000  )
        10           Au  tau(  10) = (   0.2500000   0.8660254   0.0000000  )
        11           Au  tau(  11) = (   0.5000000   0.8660254   0.0000000  )
        12           Au  tau(  12) = (   0.0000000   1.2990381   0.0000000  )
        13           Au  tau(  13) = (   0.7500000   0.8660254   0.0000000  )
        14           Au  tau(  14) = (   0.2500000   1.2990381   0.0000000  )
        15           Au  tau(  15) = (   0.5000000   1.2990381   0.0000000  )
        16           Au  tau(  16) = (   0.7500000   1.2990381   0.0000000  )
        17           Au  tau(  17) = (   0.1250000   0.0721688   0.2041242  )
        18           Au  tau(  18) = (   0.3750000   0.0721688   0.2041242  )
        19           Au  tau(  19) = (   0.6250000   0.0721688   0.2041242  )
        20           Au  tau(  20) = (   0.1250000   0.5051815   0.2041242  )
        21           Au  tau(  21) = (   0.6250000   0.5051815   0.2041242  )
        22           Au  tau(  22) = (   0.8750000   0.0721688   0.2041242  )
        23           Au  tau(  23) = (   0.1250000   0.9381942   0.2041242  )
        24           Au  tau(  24) = (   0.3750000   0.5051815   0.2041242  )
        25           Au  tau(  25) = (   0.3750000   0.9381942   0.2041242  )
        26           Au  tau(  26) = (   0.8750000   0.5051815   0.2041242  )
        27           Au  tau(  27) = (   0.2500000   0.2886752   0.2041242  )
        28           Au  tau(  28) = (   0.2500000   0.7216878   0.2041242  )
        29           Au  tau(  29) = (   1.0000000   0.2886752   0.2041242  )
        30           Au  tau(  30) = (   0.3750000   1.3712069   0.2041242  )
        31           Au  tau(  31) = (   0.6250000   0.9381942   0.2041242  )
        32           Au  tau(  32) = (   0.5000000   0.2886752   0.2041242  )
        33           Au  tau(  33) = (   0.7500000   0.2886752   0.2041242  )
        34           Au  tau(  34) = (   0.1250000   1.3712069   0.2041242  )
        35           Au  tau(  35) = (   0.6250000   1.3712069   0.2041242  )
        36           Au  tau(  36) = (   0.8750000   0.9381942   0.2041242  )
        37           Au  tau(  37) = (   0.8750000   1.3712069   0.2041242  )
        38           Au  tau(  38) = (   0.5000000   0.7216878   0.2041242  )
        39           Au  tau(  39) = (   0.7500000   0.7216878   0.2041242  )
        40           Au  tau(  40) = (   0.7500000   1.1547005   0.2041242  )
        41           Au  tau(  41) = (   0.2500000   1.1547005   0.2041242  )
        42           Au  tau(  42) = (   0.5000000   1.1547005   0.2041242  )
        43           Au  tau(  43) = (   1.0000000   0.7216878   0.2041242  )
        44           Au  tau(  44) = (   0.2500000   1.5877132   0.2041242  )
        45           Au  tau(  45) = (   0.5000000   1.5877132   0.2041242  )
        46           Au  tau(  46) = (   1.0000000   1.1547005   0.2041242  )
        47           Au  tau(  47) = (   0.7500000   1.5877132   0.2041242  )
        48           Au  tau(  48) = (   1.0000000   1.5877132   0.2041242  )
        49           Au  tau(  49) = (   0.2500000   0.1443375   0.4082483  )
        50           Au  tau(  50) = (   0.6250000   0.3608439   0.4082483  )
        51           Au  tau(  51) = (   0.5000000   0.1443375   0.4082483  )
        52           Au  tau(  52) = (   0.7500000   0.1443375   0.4082483  )
        53           Au  tau(  53) = (   0.1250000   0.3608439   0.4082483  )
        54           Au  tau(  54) = (   0.3750000   0.3608439   0.4082483  )
        55           Au  tau(  55) = (   0.2500000   0.5773503   0.4082483  )
        56           Au  tau(  56) = (   0.5000000   0.5773503   0.4082483  )
        57           Au  tau(  57) = (   0.5000000   1.0103630   0.4082483  )
        58           Au  tau(  58) = (   0.5000000   1.4433757   0.4082483  )
        59           Au  tau(  59) = (   0.7500000   0.5773503   0.4082483  )
        60           Au  tau(  60) = (   1.0000000   0.1443375   0.4082483  )
        61           Au  tau(  61) = (   0.1250000   0.7938566   0.4082483  )
        62           Au  tau(  62) = (   0.1250000   1.2268693   0.4082483  )
        63           Au  tau(  63) = (   0.1250000   1.6598820   0.4082483  )
        64           Au  tau(  64) = (   0.3750000   0.7938566   0.4082483  )
        65           Au  tau(  65) = (   0.3750000   1.2268693   0.4082483  )
        66           Au  tau(  66) = (   0.8750000   0.3608439   0.4082483  )
        67           Au  tau(  67) = (   0.8750000   0.7938566   0.4082483  )
        68           Au  tau(  68) = (   0.8750000   1.2268693   0.4082483  )
        69           Au  tau(  69) = (   0.8750000   1.6598820   0.4082483  )
        70           Au  tau(  70) = (   0.2500000   1.0103630   0.4082483  )
        71           Au  tau(  71) = (   0.2500000   1.4433757   0.4082483  )
        72           Au  tau(  72) = (   0.7500000   1.0103630   0.4082483  )
        73           Au  tau(  73) = (   0.7500000   1.4433757   0.4082483  )
        74           Au  tau(  74) = (   1.0000000   0.5773503   0.4082483  )
        75           Au  tau(  75) = (   1.0000000   1.0103630   0.4082483  )
        76           Au  tau(  76) = (   1.0000000   1.4433757   0.4082483  )
        77           Au  tau(  77) = (   0.3750000   1.6598820   0.4082483  )
        78           Au  tau(  78) = (   0.6250000   0.7938566   0.4082483  )
        79           Au  tau(  79) = (   0.6250000   1.2268693   0.4082483  )
        80           Au  tau(  80) = (   0.6250000   1.6598820   0.4082483  )
        81           Au  tau(  81) = (   0.6250000   0.2165064   0.6123725  )
        82           Au  tau(  82) = (   0.0000000   0.0000000   0.6123725  )
        83           Au  tau(  83) = (   0.2500000   0.0000000   0.6123725  )
        84           Au  tau(  84) = (   0.5000000   0.0000000   0.6123725  )
        85           Au  tau(  85) = (   0.1250000   0.2165064   0.6123725  )
        86           Au  tau(  86) = (   0.0000000   0.8660254   0.6123725  )
        87           Au  tau(  87) = (   0.2500000   0.4330127   0.6123725  )
        88           Au  tau(  88) = (   0.2500000   0.8660254   0.6123725  )
        89           Au  tau(  89) = (   0.5000000   0.4330127   0.6123725  )
        90           Au  tau(  90) = (   0.7500000   0.4330127   0.6123725  )
        91           Au  tau(  91) = (   0.1250000   0.6495191   0.6123725  )
        92           Au  tau(  92) = (   0.3750000   0.2165064   0.6123725  )
        93           Au  tau(  93) = (   0.3750000   0.6495191   0.6123725  )
        94           Au  tau(  94) = (   0.6250000   0.6495191   0.6123725  )
        95           Au  tau(  95) = (   0.8750000   0.2165064   0.6123725  )
        96           Au  tau(  96) = (   0.0000000   0.4330127   0.6123725  )
        97           Au  tau(  97) = (   0.2500000   1.2990381   0.6123725  )
        98           Au  tau(  98) = (   0.5000000   1.2990381   0.6123725  )
        99           Au  tau(  99) = (   0.7500000   0.0000000   0.6123725  )
       100           Au  tau( 100) = (   0.7500000   1.2990381   0.6123725  )
       101           Au  tau( 101) = (   0.1250000   1.0825318   0.6123725  )
       102           Au  tau( 102) = (   0.1250000   1.5155445   0.6123725  )
       103           Au  tau( 103) = (   0.3750000   1.0825318   0.6123725  )
       104           Au  tau( 104) = (   0.3750000   1.5155445   0.6123725  )
       105           Au  tau( 105) = (   0.6250000   1.0825318   0.6123725  )
       106           Au  tau( 106) = (   0.8750000   0.6495191   0.6123725  )
       107           Au  tau( 107) = (   0.8750000   1.0825318   0.6123725  )
       108           Au  tau( 108) = (   0.0000000   1.2990381   0.6123725  )
       109           Au  tau( 109) = (   0.5000000   0.8660254   0.6123725  )
       110           Au  tau( 110) = (   0.7500000   0.8660254   0.6123725  )
       111           Au  tau( 111) = (   0.6250000   1.5155445   0.6123725  )
       112           Au  tau( 112) = (   0.8750000   1.5155445   0.6123725  )
       113           Au  tau( 113) = (   0.1250000   0.5051815   0.8164966  )
       114           Au  tau( 114) = (   0.8750000   0.0721688   0.8164966  )
       115           Au  tau( 115) = (   0.5000000   0.2886752   0.8164966  )
       116           Au  tau( 116) = (   0.1250000   0.0721688   0.8164966  )
       117           Au  tau( 117) = (   0.3750000   0.0721688   0.8164966  )
       118           Au  tau( 118) = (   0.3750000   0.5051815   0.8164966  )
       119           Au  tau( 119) = (   0.6250000   0.0721688   0.8164966  )
       120           Au  tau( 120) = (   0.2500000   0.2886752   0.8164966  )
       121           Au  tau( 121) = (   0.2500000   0.7216878   0.8164966  )
       122           Au  tau( 122) = (   0.5000000   0.7216878   0.8164966  )
       123           Au  tau( 123) = (   0.7500000   0.2886752   0.8164966  )
       124           Au  tau( 124) = (   1.0000000   0.2886752   0.8164966  )
       125           Au  tau( 125) = (   0.1250000   0.9381942   0.8164966  )
       126           Au  tau( 126) = (   0.1250000   1.3712069   0.8164966  )
       127           Au  tau( 127) = (   0.3750000   0.9381942   0.8164966  )
       128           Au  tau( 128) = (   0.3750000   1.3712069   0.8164966  )
       129           Au  tau( 129) = (   0.6250000   0.5051815   0.8164966  )
       130           Au  tau( 130) = (   0.6250000   0.9381942   0.8164966  )
       131           Au  tau( 131) = (   0.6250000   1.3712069   0.8164966  )
       132           Au  tau( 132) = (   0.8750000   0.5051815   0.8164966  )
       133           Au  tau( 133) = (   0.8750000   0.9381942   0.8164966  )
       134           Au  tau( 134) = (   0.8750000   1.3712069   0.8164966  )
       135           Au  tau( 135) = (   0.2500000   1.1547005   0.8164966  )
       136           Au  tau( 136) = (   0.2500000   1.5877132   0.8164966  )
       137           Au  tau( 137) = (   0.5000000   1.1547005   0.8164966  )
       138           Au  tau( 138) = (   0.5000000   1.5877132   0.8164966  )
       139           Au  tau( 139) = (   0.7500000   0.7216878   0.8164966  )
       140           Au  tau( 140) = (   0.7500000   1.1547005   0.8164966  )
       141           Au  tau( 141) = (   0.7500000   1.5877132   0.8164966  )
       142           Au  tau( 142) = (   1.0000000   0.7216878   0.8164966  )
       143           Au  tau( 143) = (   1.0000000   1.1547005   0.8164966  )
       144           Au  tau( 144) = (   1.0000000   1.5877132   0.8164966  )
       145           Au  tau( 145) = (   0.2500000   0.1443375   1.0206208  )
       146           Au  tau( 146) = (   0.5000000   0.1443375   1.0206208  )
       147           Au  tau( 147) = (   0.7500000   0.1443375   1.0206208  )
       148           Au  tau( 148) = (   0.1250000   0.3608439   1.0206208  )
       149           Au  tau( 149) = (   0.3750000   0.3608439   1.0206208  )
       150           Au  tau( 150) = (   0.3750000   0.7938566   1.0206208  )
       151           Au  tau( 151) = (   0.2500000   0.5773503   1.0206208  )
       152           Au  tau( 152) = (   0.2500000   1.0103630   1.0206208  )
       153           Au  tau( 153) = (   0.2500000   1.4433757   1.0206208  )
       154           Au  tau( 154) = (   0.5000000   0.5773503   1.0206208  )
       155           Au  tau( 155) = (   0.5000000   1.0103630   1.0206208  )
       156           Au  tau( 156) = (   0.5000000   1.4433757   1.0206208  )
       157           Au  tau( 157) = (   0.7500000   0.5773503   1.0206208  )
       158           Au  tau( 158) = (   0.7500000   1.0103630   1.0206208  )
       159           Au  tau( 159) = (   0.7500000   1.4433757   1.0206208  )
       160           Au  tau( 160) = (   1.0000000   0.1443375   1.0206208  )
       161           Au  tau( 161) = (   1.0000000   0.5773503   1.0206208  )
       162           Au  tau( 162) = (   1.0000000   1.0103630   1.0206208  )
       163           Au  tau( 163) = (   1.0000000   1.4433757   1.0206208  )
       164           Au  tau( 164) = (   0.1250000   0.7938566   1.0206208  )
       165           Au  tau( 165) = (   0.1250000   1.2268693   1.0206208  )
       166           Au  tau( 166) = (   0.1250000   1.6598820   1.0206208  )
       167           Au  tau( 167) = (   0.3750000   1.2268693   1.0206208  )
       168           Au  tau( 168) = (   0.3750000   1.6598820   1.0206208  )
       169           Au  tau( 169) = (   0.6250000   0.3608439   1.0206208  )
       170           Au  tau( 170) = (   0.6250000   0.7938566   1.0206208  )
       171           Au  tau( 171) = (   0.6250000   1.2268693   1.0206208  )
       172           Au  tau( 172) = (   0.6250000   1.6598820   1.0206208  )
       173           Au  tau( 173) = (   0.8750000   0.3608439   1.0206208  )
       174           Au  tau( 174) = (   0.8750000   0.7938566   1.0206208  )
       175           Au  tau( 175) = (   0.8750000   1.2268693   1.0206208  )
       176           Au  tau( 176) = (   0.8750000   1.6598820   1.0206208  )
       177           Au  tau( 177) = (   0.0000000   0.0000000   1.2247448  )
       178           Au  tau( 178) = (   0.0000000   0.4330127   1.2247448  )
       179           Au  tau( 179) = (   0.2500000   0.0000000   1.2247448  )
       180           Au  tau( 180) = (   0.2500000   0.4330127   1.2247448  )
       181           Au  tau( 181) = (   0.5000000   0.0000000   1.2247448  )
       182           Au  tau( 182) = (   0.7500000   0.0000000   1.2247448  )
       183           Au  tau( 183) = (   0.1250000   0.2165064   1.2247448  )
       184           Au  tau( 184) = (   0.3750000   0.2165064   1.2247448  )
       185           Au  tau( 185) = (   0.6250000   0.2165064   1.2247448  )
       186           Au  tau( 186) = (   0.0000000   1.2990381   1.2247448  )
       187           Au  tau( 187) = (   0.2500000   0.8660254   1.2247448  )
       188           Au  tau( 188) = (   0.2500000   1.2990381   1.2247448  )
       189           Au  tau( 189) = (   0.5000000   0.8660254   1.2247448  )
       190           Au  tau( 190) = (   0.5000000   1.2990381   1.2247448  )
       191           Au  tau( 191) = (   0.7500000   0.8660254   1.2247448  )
       192           Au  tau( 192) = (   0.7500000   1.2990381   1.2247448  )
       193           Au  tau( 193) = (   0.1250000   0.6495191   1.2247448  )
       194           Au  tau( 194) = (   0.1250000   1.0825318   1.2247448  )
       195           Au  tau( 195) = (   0.1250000   1.5155445   1.2247448  )
       196           Au  tau( 196) = (   0.3750000   0.6495191   1.2247448  )
       197           Au  tau( 197) = (   0.3750000   1.0825318   1.2247448  )
       198           Au  tau( 198) = (   0.3750000   1.5155445   1.2247448  )
       199           Au  tau( 199) = (   0.6250000   0.6495191   1.2247448  )
       200           Au  tau( 200) = (   0.6250000   1.0825318   1.2247448  )
       201           Au  tau( 201) = (   0.6250000   1.5155445   1.2247448  )
       202           Au  tau( 202) = (   0.8750000   0.2165064   1.2247448  )
       203           Au  tau( 203) = (   0.8750000   0.6495191   1.2247448  )
       204           Au  tau( 204) = (   0.8750000   1.0825318   1.2247448  )
       205           Au  tau( 205) = (   0.8750000   1.5155445   1.2247448  )
       206           Au  tau( 206) = (   0.0000000   0.8660254   1.2247448  )
       207           Au  tau( 207) = (   0.5000000   0.4330127   1.2247448  )
       208           Au  tau( 208) = (   0.7500000   0.4330127   1.2247448  )
       209           Au  tau( 209) = (   0.1250000   0.9381942   1.4288690  )
       210           Au  tau( 210) = (   0.3750000   0.9381942   1.4288690  )
       211           Au  tau( 211) = (   0.6250000   0.9381942   1.4288690  )
       212           Au  tau( 212) = (   0.8750000   0.5051815   1.4288690  )
       213           Au  tau( 213) = (   0.2500000   1.1547005   1.4288690  )
       214           Au  tau( 214) = (   0.5000000   0.7216878   1.4288690  )
       215           Au  tau( 215) = (   0.7500000   0.7216878   1.4288690  )
       216           Au  tau( 216) = (   1.0000000   0.7216878   1.4288690  )
       217           Au  tau( 217) = (   0.1250000   0.0721688   1.4288690  )
       218           Au  tau( 218) = (   0.1250000   0.5051815   1.4288690  )
       219           Au  tau( 219) = (   0.1250000   1.3712069   1.4288690  )
       220           Au  tau( 220) = (   0.3750000   0.0721688   1.4288690  )
       221           Au  tau( 221) = (   0.3750000   0.5051815   1.4288690  )
       222           Au  tau( 222) = (   0.6250000   0.0721688   1.4288690  )
       223           Au  tau( 223) = (   0.6250000   0.5051815   1.4288690  )
       224           Au  tau( 224) = (   0.8750000   0.0721688   1.4288690  )
       225           Au  tau( 225) = (   0.8750000   0.9381942   1.4288690  )
       226           Au  tau( 226) = (   0.2500000   0.2886752   1.4288690  )
       227           Au  tau( 227) = (   0.2500000   0.7216878   1.4288690  )
       228           Au  tau( 228) = (   0.2500000   1.5877132   1.4288690  )
       229           Au  tau( 229) = (   0.5000000   0.2886752   1.4288690  )
       230           Au  tau( 230) = (   0.5000000   1.1547005   1.4288690  )
       231           Au  tau( 231) = (   0.7500000   0.2886752   1.4288690  )
       232           Au  tau( 232) = (   0.7500000   1.1547005   1.4288690  )
       233           Au  tau( 233) = (   1.0000000   0.2886752   1.4288690  )
       234           Au  tau( 234) = (   1.0000000   1.1547005   1.4288690  )
       235           Au  tau( 235) = (   0.3750000   1.3712069   1.4288690  )
       236           Au  tau( 236) = (   0.6250000   1.3712069   1.4288690  )
       237           Au  tau( 237) = (   0.8750000   1.3712069   1.4288690  )
       238           Au  tau( 238) = (   0.5000000   1.5877132   1.4288690  )
       239           Au  tau( 239) = (   0.7500000   1.5877132   1.4288690  )
       240           Au  tau( 240) = (   1.0000000   1.5877132   1.4288690  )
       241           Au  tau( 241) = (   0.2500000   1.0103630   1.6329931  )
       242           Au  tau( 242) = (   0.5000000   1.0103630   1.6329931  )
       243           Au  tau( 243) = (   0.7500000   0.5773503   1.6329931  )
       244           Au  tau( 244) = (   1.0000000   0.5773503   1.6329931  )
       245           Au  tau( 245) = (   0.1250000   1.2268693   1.6329931  )
       246           Au  tau( 246) = (   0.3750000   0.7938566   1.6329931  )
       247           Au  tau( 247) = (   0.6250000   0.7938566   1.6329931  )
       248           Au  tau( 248) = (   0.8750000   0.7938566   1.6329931  )
       249           Au  tau( 249) = (   0.2500000   0.1443375   1.6329931  )
       250           Au  tau( 250) = (   0.2500000   0.5773503   1.6329931  )
       251           Au  tau( 251) = (   0.2500000   1.4433757   1.6329931  )
       252           Au  tau( 252) = (   0.5000000   0.1443375   1.6329931  )
       253           Au  tau( 253) = (   0.5000000   0.5773503   1.6329931  )
       254           Au  tau( 254) = (   0.7500000   0.1443375   1.6329931  )
       255           Au  tau( 255) = (   0.7500000   1.0103630   1.6329931  )
       256           Au  tau( 256) = (   1.0000000   0.1443375   1.6329931  )
       257           Au  tau( 257) = (   1.0000000   1.0103630   1.6329931  )
       258           Au  tau( 258) = (   0.1250000   0.3608439   1.6329931  )
       259           Au  tau( 259) = (   0.1250000   0.7938566   1.6329931  )
       260           Au  tau( 260) = (   0.1250000   1.6598820   1.6329931  )
       261           Au  tau( 261) = (   0.3750000   0.3608439   1.6329931  )
       262           Au  tau( 262) = (   0.3750000   1.2268693   1.6329931  )
       263           Au  tau( 263) = (   0.6250000   0.3608439   1.6329931  )
       264           Au  tau( 264) = (   0.6250000   1.2268693   1.6329931  )
       265           Au  tau( 265) = (   0.8750000   0.3608439   1.6329931  )
       266           Au  tau( 266) = (   0.8750000   1.2268693   1.6329931  )
       267           Au  tau( 267) = (   0.5000000   1.4433757   1.6329931  )
       268           Au  tau( 268) = (   0.7500000   1.4433757   1.6329931  )
       269           Au  tau( 269) = (   1.0000000   1.4433757   1.6329931  )
       270           Au  tau( 270) = (   0.3750000   1.6598820   1.6329931  )
       271           Au  tau( 271) = (   0.6250000   1.6598820   1.6329931  )
       272           Au  tau( 272) = (   0.8750000   1.6598820   1.6329931  )
       273           Au  tau( 273) = (   0.1250000   1.0825318   1.8371173  )
       274           Au  tau( 274) = (   0.3750000   1.0825318   1.8371173  )
       275           Au  tau( 275) = (   0.6250000   0.6495191   1.8371173  )
       276           Au  tau( 276) = (   0.8750000   0.6495191   1.8371173  )
       277           Au  tau( 277) = (   0.1250000   0.2165064   1.8371173  )
       278           Au  tau( 278) = (   0.1250000   0.6495191   1.8371173  )
       279           Au  tau( 279) = (   0.1250000   1.5155445   1.8371173  )
       280           Au  tau( 280) = (   0.3750000   0.2165064   1.8371173  )
       281           Au  tau( 281) = (   0.3750000   0.6495191   1.8371173  )
       282           Au  tau( 282) = (   0.6250000   0.2165064   1.8371173  )
       283           Au  tau( 283) = (   0.6250000   1.0825318   1.8371173  )
       284           Au  tau( 284) = (   0.8750000   0.2165064   1.8371173  )
       285           Au  tau( 285) = (   0.8750000   1.0825318   1.8371173  )
       286           Au  tau( 286) = (   0.8750000   1.5155445   1.8371173  )
       287           Au  tau( 287) = (   0.3750000   1.5155445   1.8371173  )
       288           Au  tau( 288) = (   0.6250000   1.5155445   1.8371173  )

     number of k points=     6  Marzari-Vanderbilt smearing, width (Ry)=  0.0500
                       cart. coord. in units 2pi/alat
        k(    1) = (   0.0833333   0.0962250   0.0000000), wk =   0.4444444
        k(    2) = (   0.0833333  -0.2886751   0.0000000), wk =   0.2222222
        k(    3) = (   0.2500000   0.0962250   0.0000000), wk =   0.4444444
        k(    4) = (   0.2500000  -0.2886751   0.0000000), wk =   0.2222222
        k(    5) = (   0.4166667   0.0962250   0.0000000), wk =   0.4444444
        k(    6) = (   0.4166667  -0.2886751   0.0000000), wk =   0.2222222

     Dense  grid:  5700737 G-vectors     FFT dimensions: ( 135, 240, 360)

     Smooth grid:  1762171 G-vectors     FFT dimensions: (  90, 160, 243)

     Estimated max dynamical RAM per process >       2.61 GB

     Estimated total dynamical RAM >     500.41 GB

     Initial potential from superposition of free atoms

     starting charge 3164.65577, renormalised to 3168.00000

     negative rho (up, down):  7.682E+00 0.000E+00
     Starting wfcs are 2592 randomized atomic wfcs

     total cpu time spent up to now is       30.5 secs

     Self-consistent Calculation

     iteration #  1     ecut=    40.00 Ry     beta= 0.70
     Davidson diagonalization with overlap
     ethr =  1.00E-02,  avg # of iterations =  3.0

     Threshold (ethr) on eigenvalues was too large:
     Diagonalizing with lowered threshold

     Davidson diagonalization with overlap
     ethr =  3.34E-04,  avg # of iterations =  3.8

     negative rho (up, down):  7.304E+00 0.000E+00

     total cpu time spent up to now is      180.2 secs

     total energy              =  -29385.07966347 Ry
     estimated scf accuracy    <      12.62088030 Ry

     iteration #  2     ecut=    40.00 Ry     beta= 0.70
     Davidson diagonalization with overlap
     ethr =  3.98E-04,  avg # of iterations =  1.5

     negative rho (up, down):  7.713E+00 0.000E+00

     total cpu time spent up to now is      243.1 secs

     total energy              =  -29385.64929816 Ry
     estimated scf accuracy    <       5.62905520 Ry

     iteration #  3     ecut=    40.00 Ry     beta= 0.70
     Davidson diagonalization with overlap
     ethr =  1.78E-04,  avg # of iterations =  3.0

     negative rho (up, down):  8.106E+00 0.000E+00

     total cpu time spent up to now is      312.8 secs

     total energy              =  -29385.61530875 Ry
     estimated scf accuracy    <       3.29532935 Ry

     iteration #  4     ecut=    40.00 Ry     beta= 0.70
     Davidson diagonalization with overlap
     ethr =  1.04E-04,  avg # of iterations = 11.5

     negative rho (up, down):  8.097E+00 0.000E+00

     total cpu time spent up to now is      398.7 secs

     total energy              =  -29385.56231979 Ry
     estimated scf accuracy    <       1.61692127 Ry

     iteration #  5     ecut=    40.00 Ry     beta= 0.70
     Davidson diagonalization with overlap
     ethr =  5.10E-05,  avg # of iterations = 17.2

     negative rho (up, down):  7.903E+00 0.000E+00

     total cpu time spent up to now is      541.3 secs

     total energy              =  -29385.54072098 Ry
     estimated scf accuracy    <       0.98792838 Ry

     iteration #  6     ecut=    40.00 Ry     beta= 0.70
     Davidson diagonalization with overlap
     ethr =  3.12E-05,  avg # of iterations =  9.0

     negative rho (up, down):  7.918E+00 0.000E+00

     total cpu time spent up to now is      617.8 secs

     total energy              =  -29385.51296443 Ry
     estimated scf accuracy    <       0.94794873 Ry

     iteration #  7     ecut=    40.00 Ry     beta= 0.70
     Davidson diagonalization with overlap
     ethr =  2.99E-05,  avg # of iterations = 11.3

     negative rho (up, down):  7.931E+00 0.000E+00

     total cpu time spent up to now is      700.5 secs

     total energy              =  -29385.49810441 Ry
     estimated scf accuracy    <       0.97125975 Ry

     iteration #  8     ecut=    40.00 Ry     beta= 0.70
     Davidson diagonalization with overlap
     ethr =  2.99E-05,  avg # of iterations =  1.2

     negative rho (up, down):  8.184E+00 0.000E+00

     total cpu time spent up to now is      761.7 secs

     total energy              =  -29385.38082744 Ry
     estimated scf accuracy    <       0.87395912 Ry

     iteration #  9     ecut=    40.00 Ry     beta= 0.70
     Davidson diagonalization with overlap
     ethr =  2.76E-05,  avg # of iterations = 14.3

     negative rho (up, down):  8.079E+00 0.000E+00

     total cpu time spent up to now is      908.9 secs

     total energy              =  -29385.52212917 Ry
     estimated scf accuracy    <       2.44614164 Ry

     iteration # 10     ecut=    40.00 Ry     beta= 0.70
     Davidson diagonalization with overlap
     ethr =  2.76E-05,  avg # of iterations =  1.3

     negative rho (up, down):  8.097E+00 0.000E+00

     total cpu time spent up to now is      968.5 secs

     total energy              =  -29385.48193687 Ry
     estimated scf accuracy    <       1.09844503 Ry

     iteration # 11     ecut=    40.00 Ry     beta= 0.70
     Davidson diagonalization with overlap
     ethr =  2.76E-05,  avg # of iterations =  1.0

     negative rho (up, down):  8.151E+00 0.000E+00

     total cpu time spent up to now is     1021.4 secs

     total energy              =  -29385.56203169 Ry
     estimated scf accuracy    <       0.64193868 Ry

     iteration # 12     ecut=    40.00 Ry     beta= 0.70
     Davidson diagonalization with overlap
     ethr =  2.03E-05,  avg # of iterations =  2.0

     negative rho (up, down):  8.323E+00 0.000E+00

     total cpu time spent up to now is     1083.7 secs

     total energy              =  -29385.43180835 Ry
     estimated scf accuracy    <       1.34933634 Ry

     iteration # 13     ecut=    40.00 Ry     beta= 0.70
     Davidson diagonalization with overlap
     ethr =  2.03E-05,  avg # of iterations =  3.5

     negative rho (up, down):  8.195E+00 0.000E+00

     total cpu time spent up to now is     1150.2 secs

     total energy              =  -29385.36037911 Ry
     estimated scf accuracy    <       0.23409816 Ry

     iteration # 14     ecut=    40.00 Ry     beta= 0.70
     Davidson diagonalization with overlap
     ethr =  7.39E-06,  avg # of iterations = 13.3

     negative rho (up, down):  8.124E+00 0.000E+00

     total cpu time spent up to now is     1293.5 secs

     total energy              =  -29385.46463195 Ry
     estimated scf accuracy    <       0.33969473 Ry

     iteration # 15     ecut=    40.00 Ry     beta= 0.70
     Davidson diagonalization with overlap
     ethr =  7.39E-06,  avg # of iterations =  9.0

     negative rho (up, down):  8.107E+00 0.000E+00

     total cpu time spent up to now is     1376.7 secs

     total energy              =  -29385.41629494 Ry
     estimated scf accuracy    <       0.26242130 Ry

     iteration # 16     ecut=    40.00 Ry     beta= 0.70
     Davidson diagonalization with overlap
     ethr =  7.39E-06,  avg # of iterations =  8.2

     negative rho (up, down):  7.961E+00 0.000E+00

     total cpu time spent up to now is     1471.7 secs

     total energy              =  -29385.42479965 Ry
     estimated scf accuracy    <       0.00549526 Ry

     iteration # 17     ecut=    40.00 Ry     beta= 0.70
     Davidson diagonalization with overlap
     ethr =  1.73E-07,  avg # of iterations =  8.7

     negative rho (up, down):  7.885E+00 0.000E+00

     total cpu time spent up to now is     1627.5 secs

     total energy              =  -29385.42251399 Ry
     estimated scf accuracy    <       0.04022521 Ry

     iteration # 18     ecut=    40.00 Ry     beta= 0.70
     Davidson diagonalization with overlap
     ethr =  1.73E-07,  avg # of iterations = 11.3

     negative rho (up, down):  7.853E+00 0.000E+00

     total cpu time spent up to now is     1781.1 secs

     total energy              =  -29385.42586951 Ry
     estimated scf accuracy    <       0.00939415 Ry

     iteration # 19     ecut=    40.00 Ry     beta= 0.70
     Davidson diagonalization with overlap
     ethr =  1.73E-07,  avg # of iterations = 10.5

     negative rho (up, down):  7.837E+00 0.000E+00

     total cpu time spent up to now is     1867.5 secs

     total energy              =  -29385.42664213 Ry
     estimated scf accuracy    <       0.00024937 Ry

     iteration # 20     ecut=    40.00 Ry     beta= 0.70
     Davidson diagonalization with overlap
     ethr =  7.87E-09,  avg # of iterations = 13.8

     negative rho (up, down):  7.836E+00 0.000E+00

     total cpu time spent up to now is     1982.8 secs

     total energy              =  -29385.42673871 Ry
     estimated scf accuracy    <       0.00013506 Ry

     iteration # 21     ecut=    40.00 Ry     beta= 0.70
     Davidson diagonalization with overlap
     ethr =  4.26E-09,  avg # of iterations =  2.2

     negative rho (up, down):  7.835E+00 0.000E+00

     total cpu time spent up to now is     2045.7 secs

     total energy              =  -29385.42675836 Ry
     estimated scf accuracy    <       0.00011451 Ry

     iteration # 22     ecut=    40.00 Ry     beta= 0.70
     Davidson diagonalization with overlap
     ethr =  3.61E-09,  avg # of iterations =  3.0

     negative rho (up, down):  7.835E+00 0.000E+00

     total cpu time spent up to now is     2118.3 secs

     total energy              =  -29385.42679209 Ry
     estimated scf accuracy    <       0.00002268 Ry

     iteration # 23     ecut=    40.00 Ry     beta= 0.70
     Davidson diagonalization with overlap
     ethr =  7.16E-10,  avg # of iterations =  3.0

     negative rho (up, down):  7.835E+00 0.000E+00

     total cpu time spent up to now is     2182.3 secs

     total energy              =  -29385.42679057 Ry
     estimated scf accuracy    <       0.00001419 Ry

     iteration # 24     ecut=    40.00 Ry     beta= 0.70
     Davidson diagonalization with overlap
     ethr =  4.48E-10,  avg # of iterations =  2.0

     negative rho (up, down):  7.835E+00 0.000E+00

     total cpu time spent up to now is     2247.9 secs

     End of self-consistent calculation

          k = 0.0833 0.0962 0.0000 (220303 PWs)   bands (ev):

    -0.8131  -0.5141  -0.4714  -0.2264  -0.1780   0.0253   0.1019   0.2536
     0.3116   0.4899   0.5490   0.5639   0.5800   0.6014   0.6349   0.7194
     0.7831   0.8243   0.8361   0.8820   0.9222   0.9649   0.9950   1.0078
     1.0166   1.0908   1.1250   1.1387   1.2049   1.2158   1.2462   1.2567
     1.3386   1.3566   1.3852   1.4017   1.4433   1.4636   1.5056   1.5097
     1.5525   1.5572   1.5648   1.5682   1.5731   1.5833   1.5910   1.6034
     1.6141   1.6193   1.6431   1.6937   1.7090   1.7227   1.7259   1.7268
     1.7515   1.7546   1.7933   1.8038   1.8166   1.8289   1.8299   1.8326
     1.8475   1.8504   1.8520   1.8545   1.8555   1.8570   1.8640   1.8681
     1.8812   1.8948   1.9101   1.9217   1.9391   1.9453   1.9474   1.9647
     1.9729   1.9989   1.9997   2.0094   2.0103   2.0132   2.0283   2.0301
     2.0335   2.0405   2.0426   2.0559   2.0657   2.0741   2.0843   2.0882
     2.1219   2.1226   2.1253   2.1271   2.1290   2.1440   2.1465   2.1515
     2.1519   2.1576   2.1615   2.1634   2.1663   2.1687   2.1713   2.1762
     2.1961   2.2124   2.2256   2.2291   2.2301   2.2339   2.2341   2.2381
     2.2416   2.2440   2.2476   2.2733   2.2774   2.2805   2.2885   2.2905
     2.3018   2.3026   2.3044   2.3079   2.3085   2.3099   2.3146   2.3178
     2.3228   2.3252   2.3293   2.3336   2.3381   2.3403   2.3437   2.3448
     2.3493   2.3501   2.3579   2.3700   2.3763   2.3806   2.3809   2.3823
     2.3832   2.3914   2.3990   2.4062   2.4079   2.4114   2.4117   2.4121
     2.4165   2.4229   2.4261   2.4264   2.4281   2.4301   2.4364   2.4394
     2.4406   2.4493   2.4500   2.4514   2.4521   2.4561   2.4602   2.4684
     2.4742   2.4758   2.4765   2.4836   2.4837   2.4856   2.4886   2.4952
     2.5107   2.5134   2.5150   2.5244   2.5356   2.5374   2.5378   2.5429
     2.5461   2.5533   2.5555   2.5578   2.5646   2.5680   2.5686   2.5740
     2.5756   2.5799   2.5800   2.5811   2.5879   2.5904   2.5931   2.5943
     2.5980   2.5984   2.5985   2.6021   2.6139   2.6142   2.6168   2.6206
     2.6233   2.6350   2.6414   2.6539   2.6548   2.6590   2.6613   2.6636
     2.6671   2.6687   2.6699   2.6730   2.6804   2.6845   2.6931   2.6941
     2.6979   2.7012   2.7148   2.7165   2.7196   2.7198   2.7236   2.7266
     2.7339   2.7428   2.7449   2.7475   2.7589   2.7600   2.7688   2.7717
     2.7724   2.7756   2.7780   2.7808   2.7854   2.7905   2.7937   2.8060
     2.8064   2.8067   2.8070   2.8123   2.8124   2.8146   2.8192   2.8246
     2.8343   2.8370   2.8489   2.8507   2.8553   2.8554   2.8572   2.8594
     2.8599   2.8607   2.8753   2.8757   2.8985   2.9116   2.9195   2.9207
     2.9228   2.9293   2.9325   2.9372   2.9402   2.9478   2.9502   2.9564
     2.9566   2.9611   2.9793   2.9840   2.9974   3.0085   3.0111   3.0218
     3.0236   3.0438   3.0560   3.0564   3.0592   3.0674   3.0690   3.0693
     3.0725   3.0803   3.0813   3.0826   3.0833   3.0850   3.0932   3.1108
     3.1159   3.1170   3.1199   3.1220   3.1306   3.1330   3.1378   3.1399
     3.1427   3.1429   3.1478   3.1629   3.1673   3.1694   3.1760   3.1801
     3.1810   3.1908   3.1945   3.1964   3.1987   3.1991   3.2020   3.2087
     3.2088   3.2122   3.2138   3.2232   3.2248   3.2281   3.2317   3.2335
     3.2371   3.2452   3.2614   3.2628   3.2673   3.2743   3.2793   3.2816
     3.2841   3.2909   3.2925   3.2933   3.3001   3.3127   3.3165   3.3217
     3.3244   3.3244   3.3251   3.3262   3.3276   3.3291   3.3318   3.3332
     3.3365   3.3439   3.3474   3.3505   3.3538   3.3551   3.3605   3.3606
     3.3694   3.3731   3.3731   3.3757   3.3757   3.3777   3.3790   3.3816
     3.4048   3.4060   3.4066   3.4095   3.4137   3.4165   3.4212   3.4218
     3.4276   3.4346   3.4387   3.4388   3.4422   3.4477   3.4483   3.4494
     3.4592   3.4630   3.4632   3.4642   3.4731   3.4747   3.4756   3.4758
     3.4788   3.4823   3.4859   3.4870   3.4961   3.4973   3.5021   3.5061
     3.5089   3.5119   3.5149   3.5150   3.5185   3.5266   3.5318   3.5333
     3.5358   3.5381   3.5388   3.5435   3.5479   3.5536   3.5578   3.5628
     3.5669   3.5688   3.5708   3.5762   3.5763   3.5800   3.5855   3.5867
     3.5907   3.5919   3.5934   3.5971   3.5982   3.6015   3.6017   3.6017
     3.6074   3.6088   3.6209   3.6210   3.6243   3.6245   3.6251   3.6258
     3.6262   3.6296   3.6324   3.6446   3.6468   3.6479   3.6480   3.6594
     3.6619   3.6790   3.6845   3.6906   3.6922   3.6932   3.6960   3.6977
     3.7043   3.7091   3.7115   3.7150   3.7189   3.7200   3.7208   3.7303
     3.7319   3.7325   3.7342   3.7348   3.7436   3.7458   3.7493   3.7502
     3.7591   3.7593   3.7618   3.7655   3.7713   3.7731   3.7742   3.7759
     3.7768   3.7788   3.7851   3.7862   3.7876   3.7903   3.7919   3.7939
     3.8013   3.8049   3.8106   3.8138   3.8188   3.8251   3.8265   3.8280
     3.8357   3.8433   3.8466   3.8492   3.8524   3.8554   3.8555   3.8570
     3.8648   3.8676   3.8681   3.8696   3.8696   3.8734   3.8737   3.8749
     3.8765   3.8934   3.8951   3.9002   3.9019   3.9042   3.9071   3.9164
     3.9192   3.9195   3.9205   3.9224   3.9233   3.9244   3.9259   3.9306
     3.9326   3.9341   3.9345   3.9387   3.9408   3.9486   3.9494   3.9528
     3.9548   3.9551   3.9609   3.9634   3.9646   3.9675   3.9709   3.9756
     3.9783   3.9798   3.9801   3.9834   3.9863   3.9876   3.9916   3.9923
     3.9940   4.0056   4.0056   4.0117   4.0124   4.0153   4.0162   4.0192
     4.0216   4.0261   4.0264   4.0282   4.0390   4.0391   4.0417   4.0424
     4.0520   4.0533   4.0578   4.0644   4.0681   4.0684   4.0695   4.0708
     4.0730   4.0732   4.0763   4.0788   4.0800   4.0856   4.0867   4.0912
     4.0952   4.0968   4.0978   4.0985   4.0991   4.1020   4.1048   4.1079
     4.1096   4.1100   4.1140   4.1140   4.1176   4.1196   4.1202   4.1295
     4.1297   4.1317   4.1336   4.1350   4.1393   4.1398   4.1410   4.1421
     4.1423   4.1498   4.1547   4.1569   4.1586   4.1623   4.1623   4.1638
     4.1644   4.1649   4.1653   4.1656   4.1663   4.1673   4.1693   4.1710
     4.1742   4.1753   4.1753   4.1782   4.1785   4.1811   4.1830   4.1830
     4.1869   4.1888   4.1905   4.1905   4.1934   4.1940   4.1970   4.1987
     4.1994   4.1997   4.2002   4.2007   4.2020   4.2038   4.2050   4.2057
     4.2066   4.2100   4.2140   4.2151   4.2181   4.2184   4.2186   4.2271
     4.2307   4.2315   4.2318   4.2356   4.2367   4.2372   4.2376   4.2387
     4.2441   4.2501   4.2542   4.2548   4.2558   4.2565   4.2578   4.2610
     4.2653   4.2677   4.2699   4.2738   4.2744   4.2778   4.2783   4.2825
     4.2885   4.2940   4.2960   4.2966   4.3002   4.3004   4.3057   4.3060
     4.3145   4.3146   4.3152   4.3184   4.3217   4.3223   4.3223   4.3279
     4.3329   4.3383   4.3393   4.3445   4.3480   4.3504   4.3536   4.3559
     4.3566   4.3577   4.3593   4.3624   4.3672   4.3687   4.3690   4.3695
     4.3703   4.3708   4.3718   4.3789   4.3806   4.3815   4.3827   4.3837
     4.3893   4.3927   4.3936   4.3943   4.3995   4.3995   4.4013   4.4064
     4.4254   4.4265   4.4265   4.4294   4.4296   4.4313   4.4333   4.4343
     4.4420   4.4512   4.4513   4.4524   4.4624   4.4629   4.4660   4.4666
     4.4686   4.4711   4.4780   4.4841   4.4853   4.4905   4.4910   4.4915
     4.4933   4.4954   4.4991   4.5049   4.5083   4.5097   4.5126   4.5187
     4.5196   4.5223   4.5249   4.5281   4.5334   4.5342   4.5354   4.5360
     4.5361   4.5381   4.5406   4.5483   4.5499   4.5559   4.5660   4.5686
     4.5743   4.5769   4.5786   4.5789   4.5863   4.5908   4.5972   4.6060
     4.6078   4.6217   4.6325   4.6325   4.6361   4.6395   4.6448   4.6474
     4.6520   4.6591   4.6620   4.6630   4.6667   4.6803   4.6843   4.6858
     4.6872   4.6916   4.6917   4.6925   4.6974   4.6990   4.6990   4.7036
     4.7084   4.7143   4.7182   4.7188   4.7211   4.7251   4.7255   4.7306
     4.7373   4.7445   4.7455   4.7466   4.7488   4.7513   4.7606   4.7644
     4.7649   4.7727   4.7788   4.7852   4.7973   4.8013   4.8057   4.8102
     4.8112   4.8136   4.8149   4.8176   4.8234   4.8240   4.8254   4.8260
     4.8274   4.8280   4.8287   4.8300   4.8403   4.8421   4.8495   4.8507
     4.8584   4.8594   4.8717   4.8719   4.8721   4.8737   4.8786   4.8798
     4.8809   4.8820   4.8858   4.8882   4.8918   4.8944   4.8961   4.8990
     4.9010   4.9028   4.9065   4.9093   4.9099   4.9106   4.9184   4.9251
     4.9274   4.9298   4.9352   4.9412   4.9462   4.9533   4.9563   4.9584
     4.9596   4.9619   4.9646   4.9711   4.9722   4.9730   4.9750   4.9809
     4.9811   4.9818   4.9835   4.9912   4.9913   4.9929   4.9987   4.9989
     5.0021   5.0064   5.0117   5.0146   5.0165   5.0191   5.0227   5.0247
     5.0292   5.0298   5.0306   5.0340   5.0341   5.0352   5.0372   5.0375
     5.0423   5.0464   5.0564   5.0586   5.0605   5.0606   5.0631   5.0695
     5.0732   5.0782   5.0821   5.0845   5.0864   5.0881   5.0947   5.1086
     5.1094   5.1114   5.1211   5.1223   5.1242   5.1280   5.1292   5.1334
     5.1351   5.1352   5.1383   5.1417   5.1486   5.1512   5.1513   5.1518
     5.1539   5.1552   5.1603   5.1610   5.1617   5.1732   5.1802   5.1816
     5.1853   5.1900   5.1906   5.1907   5.1930   5.1998   5.2011   5.2012
     5.2042   5.2070   5.2158   5.2160   5.2220   5.2234   5.2244   5.2249
     5.2284   5.2292   5.2310   5.2315   5.2315   5.2319   5.2361   5.2381
     5.2385   5.2389   5.2391   5.2409   5.2424   5.2461   5.2495   5.2503
     5.2584   5.2590   5.2606   5.2614   5.2621   5.2644   5.2649   5.2662
     5.2687   5.2702   5.2740   5.2753   5.2768   5.2828   5.2833   5.2853
     5.2857   5.2872   5.2886   5.2961   5.2971   5.2993   5.3120   5.3162
     5.3188   5.3198   5.3219   5.3265   5.3269   5.3272   5.3311   5.3321
     5.3342   5.3371   5.3402   5.3443   5.3445   5.3472   5.3510   5.3520
     5.3537   5.3543   5.3556   5.3642   5.3671   5.3730   5.3751   5.3760
     5.3761   5.3766   5.3789   5.3811   5.3876   5.3897   5.3950   5.3951
     5.3988   5.4028   5.4034   5.4065   5.4065   5.4091   5.4130   5.4140
     5.4166   5.4191   5.4198   5.4240   5.4280   5.4315   5.4317   5.4341
     5.4460   5.4508   5.4526   5.4534   5.4562   5.4577   5.4592   5.4607
     5.4728   5.4742   5.4745   5.4784   5.4792   5.4868   5.4887   5.4895
     5.4949   5.4960   5.5087   5.5108   5.5162   5.5164   5.5184   5.5322
     5.5333   5.5350   5.5359   5.5371   5.5399   5.5424   5.5428   5.5454
     5.5469   5.5472   5.5510   5.5548   5.5554   5.5557   5.5642   5.5678
     5.5725   5.5767   5.5767   5.5771   5.5777   5.5821   5.5938   5.5990
     5.6003   5.6045   5.6061   5.6075   5.6109   5.6201   5.6218   5.6225
     5.6275   5.6320   5.6405   5.6412   5.6453   5.6453   5.6471   5.6478
     5.6571   5.6583   5.6593   5.6606   5.6679   5.6746   5.6750   5.6762
     5.6785   5.6787   5.6857   5.6966   5.6970   5.6971   5.6998   5.6998
     5.7078   5.7092   5.7106   5.7123   5.7248   5.7289   5.7298   5.7302
     5.7307   5.7311   5.7333   5.7430   5.7474   5.7480   5.7483   5.7494
     5.7566   5.7608   5.7621   5.7627   5.7667   5.7692   5.7697   5.7723
     5.7765   5.7778   5.7906   5.7980   5.8001   5.8050   5.8071   5.8079
     5.8104   5.8115   5.8214   5.8242   5.8287   5.8306   5.8329   5.8340
     5.8372   5.8438   5.8486   5.8537   5.8541   5.8547   5.8569   5.8573
     5.8582   5.8599   5.8600   5.8652   5.8653   5.8668   5.8764   5.8824
     5.8890   5.8929   5.8964   5.8974   5.9004   5.9022   5.9033   5.9059
     5.9106   5.9107   5.9166   5.9253   5.9397   5.9406   5.9428   5.9466
     5.9471   5.9489   5.9493   5.9575   5.9580   5.9587   5.9592   5.9598
     5.9633   5.9686   5.9687   5.9769   5.9774   5.9779   5.9807   5.9825
     5.9907   5.9953   5.9955   5.9963   5.9989   6.0094   6.0111   6.0130
     6.0130   6.0140   6.0277   6.0282   6.0360   6.0440   6.0477   6.0516
     6.0529   6.0529   6.0536   6.0564   6.0572   6.0659   6.0668   6.0705
     6.0717   6.0725   6.0730   6.0734   6.0734   6.0741   6.0765   6.0772
     6.0858   6.0890   6.0906   6.0910   6.0947   6.0973   6.0976   6.1009
     6.1009   6.1074   6.1077   6.1084   6.1086   6.1171   6.1180   6.1222
     6.1231   6.1244   6.1292   6.1301   6.1338   6.1394   6.1403   6.1426
     6.1428   6.1450   6.1504   6.1519   6.1529   6.1546   6.1576   6.1622
     6.1654   6.1657   6.1676   6.1684   6.1698   6.1751   6.1762   6.1783
     6.1794   6.1819   6.1841   6.1859   6.1927   6.1959   6.1960   6.1996
     6.2013   6.2056   6.2068   6.2093   6.2137   6.2137   6.2142   6.2188
     6.2199   6.2208   6.2212   6.2258   6.2259   6.2314   6.2333   6.2338
     6.2345   6.2349   6.2354   6.2389   6.2467   6.2484   6.2528   6.2578
     6.2596   6.2597   6.2635   6.2647   6.2656   6.2669   6.2672   6.2729
     6.2742   6.2766   6.2790   6.2825   6.2827   6.2837   6.2912   6.2931
     6.2938   6.2944   6.2975   6.3035   6.3071   6.3137   6.3171   6.3191
     6.3228   6.3277   6.3285   6.3308   6.3338   6.3360   6.3362   6.3373
     6.3452   6.3458   6.3458   6.3459   6.3473   6.3475   6.3496   6.3588
     6.3607   6.3620   6.3647   6.3649   6.3700   6.3715   6.3743   6.3751
     6.3760   6.3762   6.3772   6.3776   6.3777   6.3787   6.3796   6.3832
     6.3849   6.3864   6.3879   6.3903   6.3921   6.3924   6.3941   6.3956
     6.3962   6.3979   6.3988   6.4043   6.4055   6.4090   6.4091   6.4163
     6.4185   6.4242   6.4250   6.4285   6.4317   6.4323   6.4345   6.4345
     6.4384   6.4423   6.4453   6.4484   6.4496   6.4515   6.4526   6.4561
     6.4632   6.4650   6.4676   6.4699   6.4741   6.4779   6.4780   6.4783
     6.4864   6.4867   6.5015   6.5116   6.5125   6.5160   6.5173   6.5194
     6.5288   6.5344   6.5363   6.5459   6.5465   6.5466   6.5472   6.5480
     6.5483   6.5485   6.5507   6.5608   6.5644   6.5651   6.5712   6.5753
     6.5809   6.5846   6.5850   6.5858   6.5875   6.5881   6.5899   6.5918
     6.5923   6.5938   6.5958   6.5991   6.5991   6.5996   6.6010   6.6020
     6.6042   6.6048   6.6058   6.6085   6.6333   6.6346   6.6370   6.6372
     6.6383   6.6525   6.6626   6.6688   6.6704   6.6817   6.6916   6.6968
     6.6970   6.6974   6.7170   6.7170   6.7193   6.7250   6.7250   6.7285
     6.7397   6.7463   6.7566   6.7606   6.7855   6.7992   6.8158   6.8258
     6.8274   6.8338   6.8530   6.8683   6.8763   6.8953   6.8964   6.8973
     6.9056   6.9064   6.9116   6.9126   6.9130   6.9340   6.9557   6.9978
     7.0625   7.0629   7.0666   7.0797   7.1344   7.1468   7.2575   7.2655
     7.3379   7.3796   7.4070   7.4967   7.5253   7.5265   7.5290   7.5831
     7.6141   7.6220   7.6391   7.6696   7.6860   7.6911   7.7172   7.7394
     7.7968   7.7987   7.8001   7.8060   7.8153   7.8493   7.8508   7.8520
     7.8661   7.8702   7.8919   8.0010   8.0288   8.0374   8.0475   8.0544
     8.0607   8.0662   8.0794   8.1131   8.1461   8.1924   8.1972   8.2135
     8.2408   8.2647   8.2768   8.2978   8.3292   8.3494   8.3594   8.3613
     8.4060   8.4063   8.4152   8.4199   8.4213   8.4238   8.4533   8.4653
     8.5149   8.5162   8.5506   8.5854   8.5959   8.6485   8.6486   8.6700
     8.6835   8.7136   8.7454   8.7752   8.7831   8.7881   8.7919   8.8059
     8.8538   8.9184   8.9271   8.9280   8.9467   8.9507   8.9664   8.9783
     9.0090   9.0219   9.0402   9.0558   9.0636   9.1041   9.1284   9.1463
     9.1963   9.2261   9.2311   9.2504   9.2563   9.2726   9.2776   9.2890
     9.2967   9.2984   9.3119   9.3145   9.3529   9.3896   9.4609   9.4962
     9.5701   9.5761   9.5883   9.6440   9.6610   9.6859   9.6972   9.7012
     9.7174   9.7302   9.7557   9.7598   9.7803   9.7876   9.8240   9.8305
     9.8604   9.8687   9.8716   9.8788   9.9041   9.9108   9.9360   9.9775
     9.9942   9.9978  10.0039  10.0742  10.0744  10.0900  10.1999  10.2069
    10.2243  10.2499  10.2528  10.2643  10.2981  10.3142  10.3641  10.3936
    10.4597  10.4660  10.5293  10.5445  10.5520  10.5644  10.5918  10.6434
    10.6510  10.6741  10.6808  10.7057  10.7282  10.7563  10.7871  10.7895
    10.8569  10.8656  10.8916  10.9348  10.9387  10.9820  10.9853  11.0330
    11.0496  11.0637  11.0765  11.0860  11.1308  11.1348  11.1448  11.1944
    11.2181  11.2267  11.2292  11.2358  11.2424  11.2590  11.2643  11.2740
    11.2822  11.2964  11.3280  11.3375  11.3418  11.3823  11.3896  11.4436
    11.4509  11.4667  11.4823  11.5486  11.5720  11.6062  11.6596  11.6620
    11.6654  11.7216  11.7282  11.7564  11.7790  11.8061  11.8212  11.8308
    11.8564  11.8824  11.8984  11.9042  11.9311  11.9530  11.9857  12.0007
    12.0115  12.0478  12.0587  12.0632  12.0967  12.1032  12.1127  12.1261
    12.2160  12.2254  12.2555  12.2785  12.3035  12.3150  12.3199  12.3380
    12.3471  12.3560  12.3720  12.3800  12.4093  12.4488  12.4557  12.5245
    12.5405  12.5510  12.5923  12.6017  12.6091  12.6160  12.6198  12.6220
    12.6450  12.6533  12.7046  12.7298  12.7413  12.7434  12.7650  12.7789
    12.7905  12.8215  12.8466  12.8496  12.8733  12.8747  12.8883  12.8934
    12.9049  12.9363  13.0224  13.0225  13.0521  13.0725  13.0810  13.0936
    13.0960  13.1005  13.1578  13.1678  13.1795  13.2049  13.2151  13.2277
    13.2444  13.2493  13.2597  13.2839  13.2842  13.2951  13.3195  13.3233
    13.3386  13.3789  13.3835  13.4404  13.4463  13.4622  13.4631  13.4639
    13.4681  13.4685  13.4717  13.4915  13.5041  13.5234  13.5274  13.5777
    13.6555  13.6622  13.6761  13.6822  13.6883  13.7253  13.7600  13.7658
    13.8098  13.8185  13.8225  13.8263  13.8358  13.8432  13.8829  13.8853
    13.8899  13.8960  13.9143  13.9332  13.9336  13.9391  13.9525  13.9578
    13.9607  13.9950  13.9967  14.0018  14.0078  14.0281  14.0491  14.0697
    14.0903  14.1008  14.1117  14.1279  14.1447  14.1632  14.1704  14.1715
    14.2008  14.2040  14.2310  14.2432  14.2714  14.2787  14.2822  14.3238
    14.3392  14.3716  14.3736  14.4018  14.4036  14.4102  14.4228  14.4230
    14.4281  14.5054  14.5481  14.5571  14.5609

          k = 0.0833-0.2887 0.0000 (220268 PWs)   bands (ev):

    -0.7123  -0.7123  -0.3722  -0.3722   0.1225   0.1225   0.1365   0.1365
     0.3330   0.3330   0.4499   0.4499   0.6377   0.6377   0.6972   0.6972
     0.6986   0.6986   0.9044   0.9044   0.9786   0.9786   1.0130   1.0130
     1.0802   1.0802   1.2200   1.2200   1.2409   1.2409   1.2638   1.2638
     1.3071   1.3071   1.3798   1.3798   1.4287   1.4287   1.4718   1.4718
     1.5337   1.5337   1.5448   1.5448   1.6000   1.6000   1.6051   1.6051
     1.6098   1.6098   1.6496   1.6496   1.6504   1.6504   1.6608   1.6608
     1.6964   1.6964   1.7606   1.7606   1.7917   1.7917   1.8464   1.8464
     1.8611   1.8611   1.8863   1.8863   1.8970   1.8970   1.9033   1.9033
     1.9190   1.9190   1.9249   1.9249   1.9442   1.9442   1.9943   1.9943
     2.0363   2.0363   2.0410   2.0410   2.0571   2.0571   2.0649   2.0649
     2.0785   2.0785   2.0840   2.0840   2.0851   2.0851   2.0991   2.0991
     2.1137   2.1137   2.1518   2.1518   2.1677   2.1677   2.1707   2.1707
     2.1736   2.1736   2.1752   2.1752   2.1757   2.1757   2.1995   2.1995
     2.2055   2.2055   2.2131   2.2131   2.2503   2.2503   2.2535   2.2535
     2.2537   2.2537   2.2571   2.2571   2.2713   2.2713   2.2720   2.2720
     2.2767   2.2767   2.2862   2.2862   2.2875   2.2875   2.2883   2.2883
     2.2972   2.2972   2.3059   2.3059   2.3121   2.3121   2.3235   2.3235
     2.3270   2.3270   2.3383   2.3383   2.3589   2.3589   2.3592   2.3592
     2.3610   2.3610   2.3623   2.3623   2.3681   2.3681   2.4025   2.4026
     2.4143   2.4143   2.4227   2.4227   2.4251   2.4251   2.4334   2.4334
     2.4502   2.4502   2.4612   2.4612   2.4684   2.4684   2.4712   2.4712
     2.4805   2.4805   2.4859   2.4859   2.4945   2.4945   2.4995   2.4995
     2.4995   2.4995   2.5019   2.5019   2.5087   2.5087   2.5179   2.5179
     2.5194   2.5194   2.5438   2.5438   2.5453   2.5453   2.5546   2.5546
     2.5681   2.5681   2.5731   2.5731   2.5877   2.5877   2.5947   2.5947
     2.5972   2.5972   2.6218   2.6218   2.6428   2.6428   2.6488   2.6488
     2.6592   2.6592   2.6745   2.6745   2.6770   2.6770   2.6809   2.6809
     2.6924   2.6924   2.6943   2.6943   2.6952   2.6952   2.7017   2.7017
     2.7020   2.7020   2.7048   2.7048   2.7112   2.7112   2.7225   2.7225
     2.7230   2.7230   2.7431   2.7431   2.7597   2.7597   2.7746   2.7746
     2.7760   2.7760   2.7800   2.7800   2.7971   2.7971   2.8034   2.8034
     2.8072   2.8072   2.8113   2.8113   2.8194   2.8194   2.8324   2.8324
     2.8376   2.8376   2.8536   2.8536   2.8594   2.8594   2.8695   2.8695
     2.8703   2.8703   2.8872   2.8872   2.8924   2.8924   2.9245   2.9245
     2.9298   2.9298   2.9321   2.9321   2.9381   2.9381   2.9461   2.9461
     2.9788   2.9788   2.9959   2.9959   3.0050   3.0050   3.0104   3.0104
     3.0141   3.0141   3.0355   3.0355   3.0409   3.0409   3.0690   3.0690
     3.0794   3.0794   3.0821   3.0821   3.0825   3.0825   3.0842   3.0842
     3.0887   3.0887   3.1042   3.1042   3.1256   3.1256   3.1302   3.1302
     3.1367   3.1367   3.1414   3.1414   3.1602   3.1602   3.1625   3.1625
     3.1781   3.1781   3.1823   3.1823   3.2004   3.2004   3.2244   3.2244
     3.2319   3.2319   3.2375   3.2375   3.2392   3.2392   3.2420   3.2420
     3.2486   3.2486   3.2674   3.2674   3.2682   3.2682   3.2739   3.2739
     3.2740   3.2740   3.2744   3.2744   3.2914   3.2914   3.3070   3.3070
     3.3114   3.3114   3.3142   3.3142   3.3280   3.3280   3.3342   3.3342
     3.3390   3.3390   3.3400   3.3400   3.3498   3.3498   3.3539   3.3539
     3.3601   3.3601   3.3672   3.3672   3.3742   3.3742   3.3838   3.3838
     3.3844   3.3844   3.4095   3.4095   3.4118   3.4118   3.4216   3.4216
     3.4236   3.4236   3.4346   3.4346   3.4394   3.4394   3.4518   3.4518
     3.4606   3.4606   3.4615   3.4615   3.4698   3.4698   3.4763   3.4763
     3.4791   3.4791   3.4835   3.4835   3.4958   3.4958   3.5017   3.5017
     3.5086   3.5086   3.5154   3.5154   3.5240   3.5240   3.5314   3.5314
     3.5334   3.5334   3.5472   3.5472   3.5493   3.5493   3.5510   3.5510
     3.5555   3.5555   3.5559   3.5559   3.5683   3.5683   3.5841   3.5841
     3.5876   3.5876   3.5885   3.5885   3.6150   3.6150   3.6158   3.6158
     3.6198   3.6198   3.6220   3.6220   3.6228   3.6228   3.6271   3.6271
     3.6411   3.6411   3.6485   3.6485   3.6609   3.6609   3.6749   3.6749
     3.6778   3.6778   3.6852   3.6852   3.6857   3.6857   3.6913   3.6913
     3.6996   3.6996   3.7019   3.7019   3.7077   3.7077   3.7080   3.7080
     3.7384   3.7384   3.7494   3.7494   3.7510   3.7510   3.7625   3.7625
     3.7648   3.7648   3.7668   3.7668   3.7706   3.7706   3.7706   3.7706
     3.7793   3.7793   3.7862   3.7862   3.7914   3.7914   3.8156   3.8156
     3.8158   3.8158   3.8360   3.8360   3.8386   3.8386   3.8463   3.8463
     3.8505   3.8505   3.8534   3.8534   3.8622   3.8622   3.8646   3.8646
     3.8699   3.8699   3.8762   3.8762   3.8921   3.8921   3.8972   3.8972
     3.9036   3.9036   3.9094   3.9094   3.9111   3.9111   3.9125   3.9125
     3.9148   3.9148   3.9277   3.9277   3.9385   3.9385   3.9441   3.9441
     3.9442   3.9442   3.9449   3.9449   3.9451   3.9451   3.9479   3.9479
     3.9550   3.9550   3.9589   3.9589   3.9653   3.9653   3.9762   3.9762
     3.9775   3.9775   3.9820   3.9820   3.9936   3.9936   3.9946   3.9946
     3.9986   3.9986   4.0005   4.0005   4.0080   4.0080   4.0218   4.0218
     4.0218   4.0218   4.0246   4.0246   4.0251   4.0251   4.0265   4.0265
     4.0546   4.0546   4.0560   4.0560   4.0628   4.0628   4.0669   4.0669
     4.0721   4.0721   4.0726   4.0726   4.0735   4.0735   4.0744   4.0744
     4.0818   4.0818   4.0848   4.0848   4.1082   4.1082   4.1112   4.1112
     4.1156   4.1156   4.1156   4.1156   4.1221   4.1221   4.1350   4.1350
     4.1395   4.1395   4.1399   4.1399   4.1453   4.1453   4.1461   4.1461
     4.1462   4.1462   4.1477   4.1477   4.1516   4.1516   4.1607   4.1607
     4.1686   4.1686   4.1737   4.1737   4.1760   4.1760   4.1777   4.1777
     4.1811   4.1811   4.1852   4.1852   4.1872   4.1872   4.1912   4.1912
     4.1944   4.1944   4.1972   4.1972   4.1979   4.1979   4.2030   4.2030
     4.2062   4.2062   4.2129   4.2129   4.2164   4.2164   4.2186   4.2186
     4.2218   4.2218   4.2227   4.2227   4.2236   4.2236   4.2260   4.2260
     4.2260   4.2260   4.2288   4.2288   4.2317   4.2317   4.2325   4.2325
     4.2456   4.2456   4.2462   4.2462   4.2668   4.2668   4.2685   4.2685
     4.2715   4.2715   4.2763   4.2763   4.2775   4.2775   4.2825   4.2825
     4.2879   4.2879   4.2983   4.2983   4.2985   4.2985   4.3032   4.3032
     4.3077   4.3077   4.3104   4.3104   4.3177   4.3177   4.3228   4.3228
     4.3270   4.3270   4.3303   4.3303   4.3444   4.3444   4.3489   4.3489
     4.3506   4.3506   4.3603   4.3603   4.3687   4.3687   4.3699   4.3699
     4.3782   4.3782   4.3803   4.3803   4.3804   4.3804   4.3886   4.3886
     4.3985   4.3985   4.4043   4.4043   4.4189   4.4189   4.4231   4.4231
     4.4238   4.4238   4.4319   4.4319   4.4331   4.4331   4.4537   4.4537
     4.4575   4.4575   4.4609   4.4609   4.4623   4.4623   4.4641   4.4641
     4.4658   4.4658   4.4718   4.4718   4.4880   4.4880   4.4931   4.4931
     4.4933   4.4933   4.4944   4.4944   4.5051   4.5051   4.5211   4.5211
     4.5233   4.5233   4.5334   4.5334   4.5394   4.5394   4.5487   4.5487
     4.5568   4.5568   4.5755   4.5755   4.5777   4.5777   4.5801   4.5801
     4.5837   4.5837   4.5904   4.5904   4.5984   4.5984   4.5985   4.5985
     4.6013   4.6013   4.6125   4.6125   4.6135   4.6135   4.6307   4.6307
     4.6407   4.6407   4.6534   4.6534   4.6544   4.6544   4.6599   4.6599
     4.6645   4.6645   4.6704   4.6704   4.6769   4.6769   4.6838   4.6838
     4.6891   4.6891   4.6983   4.6983   4.7061   4.7061   4.7062   4.7062
     4.7096   4.7096   4.7168   4.7168   4.7193   4.7193   4.7417   4.7417
     4.7476   4.7476   4.7588   4.7588   4.7696   4.7696   4.7757   4.7757
     4.7949   4.7949   4.8045   4.8045   4.8208   4.8208   4.8262   4.8262
     4.8296   4.8296   4.8331   4.8331   4.8450   4.8450   4.8507   4.8507
     4.8594   4.8594   4.8596   4.8596   4.8662   4.8662   4.8663   4.8663
     4.8748   4.8748   4.8756   4.8756   4.8958   4.8958   4.8993   4.8993
     4.9085   4.9085   4.9184   4.9184   4.9255   4.9255   4.9264   4.9264
     4.9275   4.9275   4.9463   4.9463   4.9467   4.9467   4.9484   4.9484
     4.9632   4.9632   4.9655   4.9655   4.9662   4.9662   4.9750   4.9750
     4.9817   4.9817   4.9848   4.9848   4.9864   4.9864   4.9892   4.9892
     4.9924   4.9924   4.9992   4.9992   5.0060   5.0060   5.0079   5.0079
     5.0119   5.0119   5.0272   5.0272   5.0291   5.0291   5.0353   5.0353
     5.0418   5.0418   5.0478   5.0478   5.0519   5.0519   5.0658   5.0658
     5.0719   5.0719   5.0839   5.0839   5.0934   5.0934   5.0983   5.0983
     5.0991   5.0991   5.1150   5.1150   5.1157   5.1157   5.1166   5.1166
     5.1295   5.1295   5.1302   5.1302   5.1354   5.1354   5.1462   5.1462
     5.1481   5.1481   5.1488   5.1488   5.1582   5.1582   5.1717   5.1717
     5.1825   5.1825   5.1942   5.1942   5.1952   5.1952   5.2016   5.2016
     5.2023   5.2023   5.2106   5.2106   5.2199   5.2199   5.2235   5.2235
     5.2265   5.2265   5.2339   5.2339   5.2384   5.2384   5.2417   5.2417
     5.2457   5.2457   5.2516   5.2516   5.2523   5.2523   5.2544   5.2544
     5.2572   5.2572   5.2609   5.2609   5.2794   5.2794   5.2834   5.2834
     5.2912   5.2912   5.3123   5.3123   5.3204   5.3204   5.3212   5.3212
     5.3243   5.3243   5.3283   5.3283   5.3303   5.3303   5.3400   5.3400
     5.3459   5.3459   5.3467   5.3467   5.3468   5.3468   5.3552   5.3552
     5.3595   5.3595   5.3614   5.3614   5.3709   5.3709   5.3782   5.3782
     5.3871   5.3871   5.3928   5.3928   5.3968   5.3968   5.4084   5.4084
     5.4099   5.4099   5.4123   5.4123   5.4192   5.4192   5.4257   5.4257
     5.4269   5.4269   5.4287   5.4287   5.4289   5.4289   5.4371   5.4371
     5.4375   5.4375   5.4490   5.4490   5.4491   5.4491   5.4540   5.4540
     5.4706   5.4706   5.4771   5.4771   5.4804   5.4804   5.4822   5.4822
     5.4940   5.4940   5.4957   5.4957   5.4977   5.4977   5.5078   5.5078
     5.5093   5.5093   5.5097   5.5097   5.5210   5.5210   5.5266   5.5266
     5.5356   5.5356   5.5378   5.5378   5.5458   5.5458   5.5501   5.5501
     5.5522   5.5522   5.5534   5.5534   5.5746   5.5746   5.5792   5.5792
     5.5813   5.5813   5.5846   5.5846   5.5886   5.5886   5.5929   5.5929
     5.5983   5.5983   5.6043   5.6043   5.6070   5.6070   5.6082   5.6082
     5.6128   5.6128   5.6219   5.6219   5.6319   5.6319   5.6325   5.6325
     5.6368   5.6368   5.6380   5.6380   5.6432   5.6432   5.6510   5.6510
     5.6651   5.6651   5.6676   5.6676   5.6710   5.6710   5.6743   5.6743
     5.6912   5.6912   5.6938   5.6938   5.6944   5.6944   5.7055   5.7055
     5.7142   5.7142   5.7216   5.7216   5.7283   5.7283   5.7293   5.7293
     5.7356   5.7356   5.7451   5.7451   5.7456   5.7456   5.7674   5.7674
     5.7683   5.7683   5.7722   5.7722   5.7737   5.7737   5.7739   5.7739
     5.7856   5.7856   5.7899   5.7899   5.7914   5.7914   5.7969   5.7969
     5.7995   5.7995   5.8192   5.8192   5.8217   5.8217   5.8344   5.8344
     5.8358   5.8358   5.8587   5.8587   5.8640   5.8640   5.8688   5.8688
     5.8717   5.8717   5.8779   5.8779   5.8975   5.8975   5.9034   5.9034
     5.9070   5.9070   5.9139   5.9139   5.9141   5.9141   5.9256   5.9256
     5.9279   5.9279   5.9432   5.9432   5.9437   5.9437   5.9465   5.9465
     5.9478   5.9478   5.9480   5.9480   5.9557   5.9557   5.9721   5.9721
     5.9749   5.9749   5.9823   5.9823   5.9824   5.9824   5.9824   5.9824
     5.9841   5.9841   6.0104   6.0104   6.0165   6.0165   6.0197   6.0197
     6.0235   6.0235   6.0246   6.0246   6.0277   6.0277   6.0297   6.0297
     6.0327   6.0327   6.0377   6.0377   6.0595   6.0595   6.0714   6.0714
     6.0921   6.0921   6.1041   6.1041   6.1083   6.1083   6.1092   6.1092
     6.1132   6.1132   6.1182   6.1182   6.1240   6.1240   6.1252   6.1252
     6.1270   6.1270   6.1347   6.1347   6.1455   6.1455   6.1465   6.1465
     6.1504   6.1504   6.1563   6.1563   6.1592   6.1592   6.1600   6.1600
     6.1623   6.1623   6.1741   6.1741   6.1766   6.1766   6.1902   6.1902
     6.1936   6.1936   6.2050   6.2050   6.2050   6.2050   6.2051   6.2051
     6.2081   6.2081   6.2112   6.2112   6.2144   6.2144   6.2161   6.2161
     6.2237   6.2237   6.2277   6.2277   6.2344   6.2344   6.2361   6.2361
     6.2502   6.2502   6.2538   6.2538   6.2563   6.2563   6.2599   6.2599
     6.2714   6.2714   6.2749   6.2749   6.2755   6.2755   6.2756   6.2756
     6.2816   6.2816   6.2830   6.2830   6.2864   6.2864   6.2936   6.2936
     6.2968   6.2968   6.2971   6.2971   6.3004   6.3004   6.3009   6.3009
     6.3142   6.3142   6.3143   6.3143   6.3194   6.3194   6.3210   6.3210
     6.3222   6.3222   6.3271   6.3271   6.3341   6.3341   6.3424   6.3424
     6.3542   6.3542   6.3571   6.3571   6.3621   6.3621   6.3647   6.3647
     6.3662   6.3662   6.3760   6.3760   6.3788   6.3788   6.3838   6.3838
     6.3890   6.3890   6.3893   6.3893   6.3906   6.3906   6.3929   6.3929
     6.3945   6.3945   6.4001   6.4001   6.4002   6.4002   6.4264   6.4264
     6.4354   6.4354   6.4470   6.4470   6.4492   6.4492   6.4536   6.4536
     6.4539   6.4539   6.4581   6.4581   6.4600   6.4600   6.4614   6.4614
     6.4640   6.4640   6.4653   6.4653   6.4809   6.4809   6.4872   6.4872
     6.4891   6.4891   6.4932   6.4932   6.4982   6.4982   6.5049   6.5049
     6.5168   6.5168   6.5401   6.5401   6.5417   6.5417   6.5431   6.5431
     6.5432   6.5432   6.5492   6.5492   6.5640   6.5640   6.5645   6.5645
     6.5677   6.5677   6.5870   6.5870   6.5886   6.5886   6.5973   6.5973
     6.5994   6.5994   6.5995   6.5995   6.6023   6.6023   6.6024   6.6024
     6.6069   6.6069   6.6191   6.6191   6.6266   6.6266   6.6271   6.6271
     6.6299   6.6299   6.6425   6.6425   6.7175   6.7175   6.7186   6.7186
     6.7254   6.7254   6.7425   6.7425   6.7447   6.7447   6.7963   6.7963
     6.8300   6.8300   6.8479   6.8479   6.8541   6.8541   6.8747   6.8747
     6.8775   6.8775   6.9108   6.9108   6.9109   6.9109   6.9660   6.9660
     6.9991   6.9991   7.0640   7.0640   7.0846   7.0846   7.1194   7.1194
     7.1488   7.1488   7.2419   7.2419   7.3238   7.3238   7.3244   7.3244
     7.3413   7.3413   7.4301   7.4301   7.4628   7.4628   7.4846   7.4846
     7.5134   7.5134   7.5675   7.5675   7.5804   7.5804   7.6161   7.6161
     7.6593   7.6593   7.7311   7.7311   7.7837   7.7837   7.7874   7.7874
     7.7929   7.7929   7.8220   7.8220   7.9865   7.9865   8.0152   8.0152
     8.0368   8.0368   8.0830   8.0830   8.1140   8.1140   8.2064   8.2064
     8.2146   8.2146   8.2356   8.2356   8.2560   8.2560   8.2940   8.2940
     8.2997   8.2997   8.4392   8.4392   8.4529   8.4529   8.4790   8.4790
     8.5081   8.5081   8.5498   8.5498   8.6560   8.6560   8.6804   8.6804
     8.7581   8.7581   8.7939   8.7939   8.7952   8.7952   8.8001   8.8001
     8.9360   8.9360   8.9602   8.9602   9.0337   9.0337   9.0367   9.0367
     9.0776   9.0776   9.0921   9.0921   9.1196   9.1196   9.1199   9.1199
     9.1523   9.1523   9.1735   9.1735   9.2182   9.2182   9.2660   9.2660
     9.2792   9.2792   9.4277   9.4277   9.4348   9.4348   9.4444   9.4444
     9.4480   9.4480   9.4829   9.4829   9.6588   9.6588   9.7074   9.7074
     9.7080   9.7080   9.7104   9.7104   9.7677   9.7677   9.7772   9.7772
     9.8410   9.8410   9.9047   9.9047   9.9555   9.9555   9.9825   9.9825
    10.0120  10.0120  10.0860  10.0860  10.1377  10.1377  10.1752  10.1752
    10.2302  10.2302  10.3584  10.3584  10.4071  10.4071  10.4493  10.4493
    10.4913  10.4913  10.5417  10.5417  10.6179  10.6179  10.6334  10.6334
    10.6515  10.6515  10.6522  10.6522  10.6635  10.6635  10.7168  10.7168
    10.9126  10.9126  10.9774  10.9774  11.0144  11.0144  11.0273  11.0273
    11.1100  11.1100  11.1340  11.1340  11.2090  11.2090  11.2247  11.2247
    11.2605  11.2605  11.3005  11.3005  11.3088  11.3088  11.3201  11.3201
    11.3339  11.3339  11.3795  11.3795  11.4414  11.4414  11.4989  11.4989
    11.5258  11.5258  11.5989  11.5989  11.6090  11.6090  11.6357  11.6357
    11.6928  11.6928  11.7602  11.7602  11.7670  11.7670  11.7723  11.7723
    11.8429  11.8429  11.8433  11.8433  11.8740  11.8740  12.0150  12.0150
    12.0286  12.0286  12.0816  12.0816  12.0883  12.0883  12.0925  12.0925
    12.0991  12.0991  12.1875  12.1875  12.2302  12.2302  12.2588  12.2588
    12.2953  12.2953  12.3866  12.3866  12.4260  12.4260  12.4474  12.4474
    12.4922  12.4922  12.5342  12.5342  12.5528  12.5528  12.5787  12.5787
    12.5808  12.5808  12.6146  12.6146  12.6667  12.6667  12.7280  12.7280
    12.7649  12.7649  12.7786  12.7786  12.8328  12.8328  12.9112  12.9112
    12.9156  12.9156  12.9248  12.9248  12.9505  12.9505  13.0057  13.0057
    13.0219  13.0219  13.1167  13.1167  13.1306  13.1306  13.1928  13.1928
    13.2288  13.2288  13.2741  13.2741  13.2775  13.2775  13.3041  13.3041
    13.3264  13.3264  13.4001  13.4001  13.4213  13.4213  13.4307  13.4307
    13.4390  13.4390  13.4526  13.4526  13.5590  13.5590  13.6143  13.6143
    13.6181  13.6181  13.6327  13.6327  13.6489  13.6489  13.6768  13.6768
    13.7155  13.7155  13.7431  13.7431  13.7514  13.7514  13.7993  13.7993
    13.8664  13.8664  13.8984  13.8984  14.0074  14.0074  14.0114  14.0114
    14.0387  14.0387  14.0516  14.0516  14.1039  14.1039  14.1161  14.1161
    14.1444  14.1444  14.1899  14.1899  14.2000  14.2000  14.2197  14.2197
    14.2504  14.2504  14.2546  14.2546  14.3440  14.3440  14.3936  14.3936
    14.4557  14.4557  14.4679  14.4680  14.5067  14.5067  14.5083  14.5083
    14.6115  14.6115  14.6260  14.6260  14.6313

          k = 0.2500 0.0962 0.0000 (220225 PWs)   bands (ev):

    -0.7373  -0.4407  -0.3968  -0.1550  -0.1062  -0.0848   0.0987   0.1713
     0.1797   0.2398   0.3814   0.4364   0.4919   0.6177   0.6468   0.6742
     0.7138   0.7343   0.9015   0.9456   0.9504   1.0347   1.0429   1.1484
     1.1543   1.1651   1.1977   1.2037   1.2654   1.2719   1.2807   1.2942
     1.3080   1.3871   1.3915   1.4699   1.4777   1.4962   1.5127   1.5595
     1.5748   1.5860   1.6010   1.6170   1.6295   1.6346   1.6489   1.6502
     1.6523   1.6687   1.6766   1.6798   1.7010   1.7086   1.7199   1.7419
     1.7711   1.7731   1.7827   1.7840   1.7873   1.7996   1.8187   1.8190
     1.8488   1.8667   1.8748   1.8781   1.8935   1.8995   1.9016   1.9137
     1.9187   1.9253   1.9256   1.9639   1.9815   1.9842   2.0012   2.0013
     2.0121   2.0127   2.0164   2.0198   2.0349   2.0356   2.0454   2.0478
     2.0637   2.0687   2.0730   2.0743   2.0790   2.0922   2.1038   2.1063
     2.1072   2.1108   2.1174   2.1237   2.1249   2.1307   2.1389   2.1458
     2.1480   2.1537   2.1537   2.1545   2.1583   2.1596   2.1604   2.1632
     2.1650   2.1706   2.1811   2.1912   2.1929   2.2022   2.2040   2.2084
     2.2131   2.2155   2.2208   2.2210   2.2286   2.2300   2.2414   2.2443
     2.2482   2.2683   2.2785   2.2800   2.2803   2.2809   2.2833   2.2859
     2.2882   2.2888   2.2919   2.2941   2.2967   2.3008   2.3046   2.3109
     2.3162   2.3277   2.3412   2.3422   2.3424   2.3455   2.3515   2.3516
     2.3561   2.3623   2.3666   2.3729   2.3734   2.3862   2.3874   2.3884
     2.3888   2.4042   2.4080   2.4082   2.4120   2.4140   2.4176   2.4276
     2.4321   2.4337   2.4361   2.4402   2.4491   2.4519   2.4553   2.4579
     2.4590   2.4699   2.4723   2.4733   2.4801   2.4814   2.4922   2.4928
     2.4966   2.5014   2.5059   2.5076   2.5108   2.5224   2.5232   2.5339
     2.5376   2.5387   2.5417   2.5465   2.5471   2.5507   2.5718   2.5779
     2.5815   2.5872   2.5895   2.5896   2.5899   2.5906   2.5946   2.5969
     2.5971   2.5986   2.6014   2.6200   2.6241   2.6295   2.6331   2.6378
     2.6392   2.6408   2.6478   2.6483   2.6626   2.6630   2.6631   2.6678
     2.6755   2.6763   2.6784   2.6847   2.6854   2.6936   2.6954   2.7061
     2.7097   2.7121   2.7156   2.7199   2.7208   2.7221   2.7237   2.7238
     2.7322   2.7328   2.7332   2.7395   2.7505   2.7515   2.7523   2.7530
     2.7622   2.7625   2.7772   2.7858   2.7888   2.7895   2.7927   2.7934
     2.7936   2.8029   2.8039   2.8117   2.8249   2.8259   2.8305   2.8311
     2.8322   2.8479   2.8609   2.8636   2.8650   2.8651   2.8659   2.8671
     2.8786   2.8856   2.8936   2.8951   2.8978   2.8995   2.9005   2.9052
     2.9059   2.9153   2.9190   2.9191   2.9228   2.9235   2.9329   2.9371
     2.9481   2.9514   2.9522   2.9697   2.9763   2.9844   2.9912   2.9915
     2.9945   3.0024   3.0085   3.0184   3.0230   3.0232   3.0250   3.0293
     3.0342   3.0440   3.0605   3.0639   3.0731   3.0744   3.0751   3.0847
     3.0914   3.1063   3.1097   3.1111   3.1112   3.1139   3.1229   3.1268
     3.1435   3.1446   3.1538   3.1626   3.1679   3.1690   3.1692   3.1706
     3.1759   3.1771   3.1785   3.1789   3.1878   3.1886   3.1940   3.1954
     3.1958   3.2072   3.2209   3.2219   3.2238   3.2247   3.2293   3.2306
     3.2326   3.2426   3.2435   3.2543   3.2576   3.2593   3.2597   3.2737
     3.2836   3.2871   3.2933   3.2957   3.2959   3.2989   3.2993   3.3044
     3.3060   3.3061   3.3098   3.3186   3.3238   3.3243   3.3243   3.3287
     3.3290   3.3294   3.3323   3.3381   3.3392   3.3465   3.3478   3.3480
     3.3513   3.3577   3.3595   3.3597   3.3628   3.3672   3.3719   3.3794
     3.3832   3.3857   3.3858   3.3884   3.3900   3.3982   3.4078   3.4112
     3.4115   3.4132   3.4144   3.4164   3.4365   3.4374   3.4375   3.4425
     3.4468   3.4471   3.4515   3.4518   3.4591   3.4622   3.4692   3.4702
     3.4710   3.4729   3.4781   3.4804   3.4853   3.4856   3.4891   3.4910
     3.5041   3.5047   3.5051   3.5070   3.5222   3.5222   3.5239   3.5311
     3.5333   3.5340   3.5374   3.5394   3.5486   3.5525   3.5528   3.5529
     3.5591   3.5613   3.5624   3.5647   3.5677   3.5775   3.5863   3.5889
     3.5923   3.5962   3.5969   3.5982   3.5997   3.6021   3.6084   3.6089
     3.6102   3.6109   3.6133   3.6171   3.6173   3.6214   3.6242   3.6290
     3.6306   3.6441   3.6496   3.6512   3.6544   3.6587   3.6611   3.6687
     3.6701   3.6736   3.6737   3.6838   3.6917   3.6931   3.6969   3.7050
     3.7058   3.7100   3.7138   3.7153   3.7160   3.7175   3.7214   3.7227
     3.7227   3.7245   3.7295   3.7349   3.7369   3.7467   3.7479   3.7591
     3.7633   3.7661   3.7743   3.7750   3.7776   3.7777   3.7920   3.7955
     3.8029   3.8085   3.8098   3.8126   3.8144   3.8155   3.8177   3.8271
     3.8286   3.8313   3.8374   3.8380   3.8389   3.8413   3.8414   3.8469
     3.8499   3.8541   3.8568   3.8587   3.8597   3.8617   3.8620   3.8635
     3.8701   3.8710   3.8753   3.8800   3.8802   3.8811   3.8815   3.8835
     3.8852   3.8921   3.8935   3.8953   3.8982   3.8999   3.9087   3.9142
     3.9184   3.9308   3.9331   3.9338   3.9342   3.9344   3.9346   3.9348
     3.9354   3.9448   3.9520   3.9531   3.9543   3.9556   3.9574   3.9580
     3.9626   3.9660   3.9723   3.9724   3.9741   3.9742   3.9756   3.9761
     3.9764   3.9805   3.9816   3.9831   3.9837   3.9896   3.9928   3.9973
     3.9977   4.0020   4.0052   4.0097   4.0102   4.0115   4.0186   4.0233
     4.0301   4.0305   4.0323   4.0332   4.0333   4.0338   4.0357   4.0457
     4.0519   4.0542   4.0561   4.0581   4.0633   4.0640   4.0660   4.0663
     4.0727   4.0744   4.0745   4.0779   4.0782   4.0806   4.0810   4.0813
     4.0826   4.0920   4.0926   4.0956   4.0957   4.0960   4.0962   4.0971
     4.0988   4.1008   4.1016   4.1052   4.1062   4.1096   4.1104   4.1108
     4.1113   4.1138   4.1257   4.1281   4.1299   4.1320   4.1320   4.1375
     4.1378   4.1379   4.1483   4.1485   4.1500   4.1528   4.1537   4.1556
     4.1584   4.1609   4.1645   4.1682   4.1691   4.1746   4.1751   4.1780
     4.1812   4.1825   4.1831   4.1844   4.1859   4.1889   4.1910   4.1914
     4.1929   4.1935   4.1976   4.1984   4.1988   4.2003   4.2020   4.2037
     4.2053   4.2077   4.2081   4.2083   4.2084   4.2120   4.2185   4.2189
     4.2201   4.2221   4.2226   4.2240   4.2284   4.2286   4.2287   4.2298
     4.2311   4.2344   4.2366   4.2461   4.2472   4.2504   4.2507   4.2518
     4.2583   4.2647   4.2666   4.2696   4.2720   4.2729   4.2862   4.2907
     4.2917   4.2925   4.2933   4.2937   4.2962   4.2965   4.2982   4.2993
     4.3024   4.3030   4.3035   4.3039   4.3121   4.3121   4.3211   4.3215
     4.3227   4.3296   4.3303   4.3321   4.3328   4.3330   4.3408   4.3420
     4.3454   4.3511   4.3525   4.3540   4.3571   4.3577   4.3595   4.3621
     4.3648   4.3651   4.3673   4.3686   4.3762   4.3786   4.3837   4.3869
     4.3878   4.3933   4.3940   4.3962   4.3964   4.3981   4.4038   4.4057
     4.4062   4.4070   4.4126   4.4133   4.4215   4.4265   4.4273   4.4319
     4.4339   4.4354   4.4376   4.4398   4.4398   4.4438   4.4496   4.4508
     4.4527   4.4593   4.4608   4.4618   4.4647   4.4713   4.4752   4.4802
     4.4825   4.4899   4.4952   4.4978   4.4988   4.4992   4.5010   4.5037
     4.5130   4.5140   4.5178   4.5229   4.5241   4.5336   4.5339   4.5344
     4.5365   4.5408   4.5422   4.5425   4.5429   4.5477   4.5523   4.5552
     4.5555   4.5559   4.5608   4.5694   4.5758   4.5820   4.5828   4.5894
[...]
     atom   58 type  1   force =     0.00000000    0.00056106   -0.00391919
     atom   59 type  1   force =     0.00000219    0.00056132   -0.00391900
     atom   60 type  1   force =     0.00000000    0.00056174   -0.00391746
     atom   61 type  1   force =    -0.00000185   -0.00053423    0.00450463
     atom   62 type  1   force =    -0.00000185   -0.00053417    0.00450466
     atom   63 type  1   force =    -0.00000186   -0.00053417    0.00450452
     atom   64 type  1   force =    -0.00000180   -0.00053421    0.00450338
     atom   65 type  1   force =    -0.00000184   -0.00053412    0.00450346
     atom   66 type  1   force =     0.00000186   -0.00053421    0.00450449
     atom   67 type  1   force =     0.00000185   -0.00053423    0.00450463
     atom   68 type  1   force =     0.00000185   -0.00053417    0.00450466
     atom   69 type  1   force =     0.00000186   -0.00053417    0.00450452
     atom   70 type  1   force =    -0.00000218    0.00056136   -0.00391894
     atom   71 type  1   force =    -0.00000218    0.00056142   -0.00391903
     atom   72 type  1   force =     0.00000218    0.00056136   -0.00391894
     atom   73 type  1   force =     0.00000218    0.00056142   -0.00391903
     atom   74 type  1   force =     0.00000000    0.00056155   -0.00391738
     atom   75 type  1   force =     0.00000000    0.00056159   -0.00391738
     atom   76 type  1   force =     0.00000000    0.00056165   -0.00391740
     atom   77 type  1   force =    -0.00000184   -0.00053415    0.00450337
     atom   78 type  1   force =     0.00000180   -0.00053421    0.00450338
     atom   79 type  1   force =     0.00000184   -0.00053412    0.00450346
     atom   80 type  1   force =     0.00000184   -0.00053415    0.00450337
     atom   81 type  1   force =     0.00000191   -0.00045371   -0.00054722
     atom   82 type  1   force =     0.00000000    0.00028751   -0.00077869
     atom   83 type  1   force =    -0.00000224    0.00028848   -0.00077948
     atom   84 type  1   force =     0.00000000    0.00028893   -0.00078068
     atom   85 type  1   force =    -0.00000238   -0.00045412   -0.00054783
     atom   86 type  1   force =     0.00000000    0.00028743   -0.00077879
     atom   87 type  1   force =    -0.00000224    0.00028838   -0.00077952
     atom   88 type  1   force =    -0.00000225    0.00028835   -0.00077947
     atom   89 type  1   force =     0.00000000    0.00028882   -0.00078073
     atom   90 type  1   force =     0.00000224    0.00028838   -0.00077952
     atom   91 type  1   force =    -0.00000237   -0.00045420   -0.00054786
     atom   92 type  1   force =    -0.00000191   -0.00045371   -0.00054722
     atom   93 type  1   force =    -0.00000189   -0.00045377   -0.00054726
     atom   94 type  1   force =     0.00000189   -0.00045377   -0.00054726
     atom   95 type  1   force =     0.00000238   -0.00045412   -0.00054783
     atom   96 type  1   force =     0.00000000    0.00028745   -0.00077881
     atom   97 type  1   force =    -0.00000221    0.00028842   -0.00077953
     atom   98 type  1   force =     0.00000000    0.00028888   -0.00078076
     atom   99 type  1   force =     0.00000224    0.00028848   -0.00077948
     atom  100 type  1   force =     0.00000221    0.00028842   -0.00077953
     atom  101 type  1   force =    -0.00000239   -0.00045418   -0.00054774
     atom  102 type  1   force =    -0.00000234   -0.00045422   -0.00054779
     atom  103 type  1   force =    -0.00000190   -0.00045374   -0.00054716
     atom  104 type  1   force =    -0.00000190   -0.00045382   -0.00054722
     atom  105 type  1   force =     0.00000190   -0.00045374   -0.00054716
     atom  106 type  1   force =     0.00000237   -0.00045420   -0.00054786
     atom  107 type  1   force =     0.00000239   -0.00045418   -0.00054774
     atom  108 type  1   force =     0.00000000    0.00028748   -0.00077872
     atom  109 type  1   force =     0.00000000    0.00028884   -0.00078071
     atom  110 type  1   force =     0.00000225    0.00028835   -0.00077947
     atom  111 type  1   force =     0.00000190   -0.00045382   -0.00054722
     atom  112 type  1   force =     0.00000234   -0.00045422   -0.00054779
     atom  113 type  1   force =    -0.00000130   -0.00018585    0.00040651
     atom  114 type  1   force =     0.00000125   -0.00018578    0.00040647
     atom  115 type  1   force =     0.00000000    0.00019640   -0.00056813
     atom  116 type  1   force =    -0.00000125   -0.00018578    0.00040647
     atom  117 type  1   force =    -0.00000159   -0.00018598    0.00040670
     atom  118 type  1   force =    -0.00000156   -0.00018607    0.00040669
     atom  119 type  1   force =     0.00000159   -0.00018598    0.00040670
     atom  120 type  1   force =    -0.00000245    0.00019707   -0.00056885
     atom  121 type  1   force =    -0.00000246    0.00019717   -0.00056884
     atom  122 type  1   force =     0.00000000    0.00019647   -0.00056814
     atom  123 type  1   force =     0.00000245    0.00019707   -0.00056885
     atom  124 type  1   force =     0.00000000    0.00019661   -0.00056962
     atom  125 type  1   force =    -0.00000129   -0.00018571    0.00040650
     atom  126 type  1   force =    -0.00000128   -0.00018568    0.00040655
     atom  127 type  1   force =    -0.00000155   -0.00018591    0.00040673
     atom  128 type  1   force =    -0.00000154   -0.00018589    0.00040671
     atom  129 type  1   force =     0.00000156   -0.00018607    0.00040669
     atom  130 type  1   force =     0.00000155   -0.00018591    0.00040673
     atom  131 type  1   force =     0.00000154   -0.00018589    0.00040671
     atom  132 type  1   force =     0.00000130   -0.00018585    0.00040651
     atom  133 type  1   force =     0.00000129   -0.00018571    0.00040650
     atom  134 type  1   force =     0.00000128   -0.00018568    0.00040655
     atom  135 type  1   force =    -0.00000245    0.00019710   -0.00056884
     atom  136 type  1   force =    -0.00000246    0.00019715   -0.00056883
     atom  137 type  1   force =     0.00000000    0.00019639   -0.00056817
     atom  138 type  1   force =     0.00000000    0.00019644   -0.00056814
     atom  139 type  1   force =     0.00000246    0.00019717   -0.00056884
     atom  140 type  1   force =     0.00000245    0.00019710   -0.00056884
     atom  141 type  1   force =     0.00000246    0.00019715   -0.00056883
     atom  142 type  1   force =     0.00000000    0.00019672   -0.00056961
     atom  143 type  1   force =     0.00000000    0.00019665   -0.00056964
     atom  144 type  1   force =     0.00000000    0.00019672   -0.00056959
     atom  145 type  1   force =    -0.00000241    0.00018746   -0.00040849
     atom  146 type  1   force =     0.00000000    0.00018713   -0.00040886
     atom  147 type  1   force =     0.00000241    0.00018746   -0.00040849
     atom  148 type  1   force =    -0.00000245   -0.00019633    0.00056737
     atom  149 type  1   force =    -0.00000178   -0.00019521    0.00056750
     atom  150 type  1   force =    -0.00000177   -0.00019521    0.00056747
     atom  151 type  1   force =    -0.00000240    0.00018737   -0.00040843
     atom  152 type  1   force =    -0.00000239    0.00018738   -0.00040852
     atom  153 type  1   force =    -0.00000240    0.00018741   -0.00040849
     atom  154 type  1   force =     0.00000000    0.00018701   -0.00040888
     atom  155 type  1   force =     0.00000000    0.00018702   -0.00040893
     atom  156 type  1   force =     0.00000000    0.00018706   -0.00040887
     atom  157 type  1   force =     0.00000240    0.00018737   -0.00040843
     atom  158 type  1   force =     0.00000239    0.00018738   -0.00040852
     atom  159 type  1   force =     0.00000240    0.00018741   -0.00040849
     atom  160 type  1   force =     0.00000000    0.00018809   -0.00040964
     atom  161 type  1   force =     0.00000000    0.00018797   -0.00040964
     atom  162 type  1   force =     0.00000000    0.00018798   -0.00040975
     atom  163 type  1   force =     0.00000000    0.00018803   -0.00040967
     atom  164 type  1   force =    -0.00000245   -0.00019633    0.00056735
     atom  165 type  1   force =    -0.00000243   -0.00019630    0.00056736
     atom  166 type  1   force =    -0.00000244   -0.00019634    0.00056732
     atom  167 type  1   force =    -0.00000179   -0.00019521    0.00056748
     atom  168 type  1   force =    -0.00000181   -0.00019522    0.00056746
     atom  169 type  1   force =     0.00000178   -0.00019521    0.00056750
     atom  170 type  1   force =     0.00000177   -0.00019521    0.00056747
     atom  171 type  1   force =     0.00000179   -0.00019521    0.00056748
     atom  172 type  1   force =     0.00000181   -0.00019522    0.00056746
     atom  173 type  1   force =     0.00000245   -0.00019633    0.00056737
     atom  174 type  1   force =     0.00000245   -0.00019633    0.00056735
     atom  175 type  1   force =     0.00000243   -0.00019630    0.00056736
     atom  176 type  1   force =     0.00000244   -0.00019634    0.00056732
     atom  177 type  1   force =     0.00000000    0.00045424    0.00055429
     atom  178 type  1   force =     0.00000000    0.00045411    0.00055420
     atom  179 type  1   force =    -0.00000333    0.00045503    0.00055439
     atom  180 type  1   force =    -0.00000332    0.00045491    0.00055434
     atom  181 type  1   force =     0.00000000    0.00045443    0.00055375
     atom  182 type  1   force =     0.00000333    0.00045503    0.00055439
     atom  183 type  1   force =    -0.00000239   -0.00028738    0.00078245
     atom  184 type  1   force =    -0.00000240   -0.00028750    0.00078347
     atom  185 type  1   force =     0.00000240   -0.00028750    0.00078347
     atom  186 type  1   force =     0.00000000    0.00045415    0.00055417
     atom  187 type  1   force =    -0.00000332    0.00045492    0.00055431
     atom  188 type  1   force =    -0.00000332    0.00045495    0.00055428
     atom  189 type  1   force =     0.00000000    0.00045431    0.00055365
     atom  190 type  1   force =     0.00000000    0.00045436    0.00055365
     atom  191 type  1   force =     0.00000332    0.00045492    0.00055431
     atom  192 type  1   force =     0.00000332    0.00045495    0.00055428
     atom  193 type  1   force =    -0.00000239   -0.00028742    0.00078234
     atom  194 type  1   force =    -0.00000238   -0.00028740    0.00078237
     atom  195 type  1   force =    -0.00000240   -0.00028738    0.00078236
     atom  196 type  1   force =    -0.00000242   -0.00028752    0.00078336
     atom  197 type  1   force =    -0.00000239   -0.00028750    0.00078337
     atom  198 type  1   force =    -0.00000239   -0.00028750    0.00078343
     atom  199 type  1   force =     0.00000242   -0.00028752    0.00078336
     atom  200 type  1   force =     0.00000239   -0.00028750    0.00078337
     atom  201 type  1   force =     0.00000239   -0.00028750    0.00078343
     atom  202 type  1   force =     0.00000239   -0.00028738    0.00078245
     atom  203 type  1   force =     0.00000239   -0.00028742    0.00078234
     atom  204 type  1   force =     0.00000238   -0.00028740    0.00078237
     atom  205 type  1   force =     0.00000240   -0.00028738    0.00078236
     atom  206 type  1   force =     0.00000000    0.00045407    0.00055415
     atom  207 type  1   force =     0.00000000    0.00045430    0.00055372
     atom  208 type  1   force =     0.00000332    0.00045491    0.00055434
     atom  209 type  1   force =    -0.00000160   -0.00056045    0.00391296
     atom  210 type  1   force =    -0.00000112   -0.00056090    0.00391240
     atom  211 type  1   force =     0.00000112   -0.00056090    0.00391240
     atom  212 type  1   force =     0.00000161   -0.00056065    0.00391310
     atom  213 type  1   force =    -0.00000260    0.00053452   -0.00450945
     atom  214 type  1   force =     0.00000000    0.00053552   -0.00450968
     atom  215 type  1   force =     0.00000255    0.00053451   -0.00450938
     atom  216 type  1   force =     0.00000000    0.00053341   -0.00450874
     atom  217 type  1   force =    -0.00000164   -0.00056049    0.00391314
     atom  218 type  1   force =    -0.00000161   -0.00056065    0.00391310
     atom  219 type  1   force =    -0.00000160   -0.00056033    0.00391299
     atom  220 type  1   force =    -0.00000113   -0.00056088    0.00391261
     atom  221 type  1   force =    -0.00000113   -0.00056111    0.00391258
     atom  222 type  1   force =     0.00000113   -0.00056088    0.00391261
     atom  223 type  1   force =     0.00000113   -0.00056111    0.00391258
     atom  224 type  1   force =     0.00000164   -0.00056049    0.00391314
     atom  225 type  1   force =     0.00000160   -0.00056045    0.00391296
     atom  226 type  1   force =    -0.00000257    0.00053443   -0.00450921
     atom  227 type  1   force =    -0.00000255    0.00053451   -0.00450938
     atom  228 type  1   force =    -0.00000255    0.00053462   -0.00450928
     atom  229 type  1   force =     0.00000000    0.00053543   -0.00450956
     atom  230 type  1   force =     0.00000000    0.00053553   -0.00450980
     atom  231 type  1   force =     0.00000257    0.00053443   -0.00450921
     atom  232 type  1   force =     0.00000260    0.00053452   -0.00450945
     atom  233 type  1   force =     0.00000000    0.00053336   -0.00450860
     atom  234 type  1   force =     0.00000000    0.00053340   -0.00450877
     atom  235 type  1   force =    -0.00000112   -0.00056078    0.00391245
     atom  236 type  1   force =     0.00000112   -0.00056078    0.00391245
     atom  237 type  1   force =     0.00000160   -0.00056033    0.00391299
     atom  238 type  1   force =     0.00000000    0.00053563   -0.00450960
     atom  239 type  1   force =     0.00000255    0.00053462   -0.00450928
     atom  240 type  1   force =     0.00000000    0.00053351   -0.00450860
     atom  241 type  1   force =    -0.00000269   -0.00334744    0.01661283
     atom  242 type  1   force =     0.00000000   -0.00334756    0.01661227
     atom  243 type  1   force =     0.00000270   -0.00334751    0.01661318
     atom  244 type  1   force =     0.00000000   -0.00334727    0.01661502
     atom  245 type  1   force =    -0.00000130    0.00158824    0.00969778
     atom  246 type  1   force =    -0.00000138    0.00158918    0.00969473
     atom  247 type  1   force =     0.00000138    0.00158918    0.00969473
     atom  248 type  1   force =     0.00000135    0.00158785    0.00969792
     atom  249 type  1   force =    -0.00000270   -0.00334732    0.01661333
     atom  250 type  1   force =    -0.00000270   -0.00334751    0.01661318
     atom  251 type  1   force =    -0.00000265   -0.00334713    0.01661305
     atom  252 type  1   force =     0.00000000   -0.00334745    0.01661268
     atom  253 type  1   force =     0.00000000   -0.00334774    0.01661256
     atom  254 type  1   force =     0.00000270   -0.00334732    0.01661333
     atom  255 type  1   force =     0.00000269   -0.00334744    0.01661283
     atom  256 type  1   force =     0.00000000   -0.00334704    0.01661527
     atom  257 type  1   force =     0.00000000   -0.00334709    0.01661455
     atom  258 type  1   force =    -0.00000131    0.00158785    0.00969826
     atom  259 type  1   force =    -0.00000135    0.00158785    0.00969792
     atom  260 type  1   force =    -0.00000133    0.00158829    0.00969823
     atom  261 type  1   force =    -0.00000136    0.00158913    0.00969507
     atom  262 type  1   force =    -0.00000134    0.00158947    0.00969460
     atom  263 type  1   force =     0.00000136    0.00158913    0.00969507
     atom  264 type  1   force =     0.00000134    0.00158947    0.00969460
     atom  265 type  1   force =     0.00000131    0.00158785    0.00969826
     atom  266 type  1   force =     0.00000130    0.00158824    0.00969778
     atom  267 type  1   force =     0.00000000   -0.00334732    0.01661231
     atom  268 type  1   force =     0.00000265   -0.00334713    0.01661305
     atom  269 type  1   force =     0.00000000   -0.00334679    0.01661496
     atom  270 type  1   force =    -0.00000139    0.00158945    0.00969511
     atom  271 type  1   force =     0.00000139    0.00158945    0.00969511
     atom  272 type  1   force =     0.00000133    0.00158829    0.00969823
     atom  273 type  1   force =    -0.00000030    0.00165233   -0.02670915
     atom  274 type  1   force =     0.00000114    0.00164972   -0.02671242
     atom  275 type  1   force =    -0.00000124    0.00164948   -0.02671214
     atom  276 type  1   force =     0.00000015    0.00165195   -0.02670879
     atom  277 type  1   force =    -0.00000038    0.00165208   -0.02670868
     atom  278 type  1   force =    -0.00000015    0.00165195   -0.02670879
     atom  279 type  1   force =    -0.00000031    0.00165288   -0.02670907
     atom  280 type  1   force =     0.00000119    0.00164986   -0.02671212
     atom  281 type  1   force =     0.00000124    0.00164948   -0.02671214
     atom  282 type  1   force =    -0.00000119    0.00164986   -0.02671212
     atom  283 type  1   force =    -0.00000114    0.00164972   -0.02671242
     atom  284 type  1   force =     0.00000038    0.00165208   -0.02670868
     atom  285 type  1   force =     0.00000030    0.00165233   -0.02670915
     atom  286 type  1   force =     0.00000031    0.00165288   -0.02670907
     atom  287 type  1   force =     0.00000115    0.00165032   -0.02671234
     atom  288 type  1   force =    -0.00000115    0.00165032   -0.02671234

     Total force =     0.190862     Total SCF correction =     0.002942
 
     init_run     :    102.43s CPU     29.72s WALL (       1 calls)
     electrons    :   7510.05s CPU   2217.38s WALL (       1 calls)
     forces       :     55.18s CPU     16.35s WALL (       1 calls)

     Called by init_run:
     wfcinit      :     95.55s CPU     25.71s WALL (       1 calls)
     potinit      :      1.86s CPU      0.50s WALL (       1 calls)
     hinit0       :      2.26s CPU      0.99s WALL (       1 calls)

     Called by electrons:
     c_bands      :   6935.63s CPU   2067.13s WALL (      25 calls)
     sum_band     :    535.85s CPU    139.60s WALL (      25 calls)
     v_of_rho     :     20.24s CPU      5.32s WALL (      25 calls)
     newd         :      9.37s CPU      2.97s WALL (      25 calls)
     mix_rho      :      5.64s CPU      1.49s WALL (      25 calls)

     Called by c_bands:
     init_us_2    :     15.69s CPU      4.16s WALL (      51 calls)
     cegterg      :   6488.66s CPU   1675.41s WALL (      25 calls)

     Called by *egterg:
     cdiaghg      :   1736.69s CPU    457.34s WALL (     173 calls)
     h_psi        :   2107.92s CPU    541.45s WALL (     175 calls)
     s_psi        :    526.48s CPU    133.42s WALL (     175 calls)
     g_psi        :      4.23s CPU      1.06s WALL (     149 calls)

     Called by h_psi:
     h_psi:calbec :    575.11s CPU    148.09s WALL (     175 calls)
     vloc_psi     :    988.43s CPU    253.98s WALL (     175 calls)
     add_vuspsi   :    535.97s CPU    135.93s WALL (     175 calls)

     General routines
     calbec       :    860.75s CPU    222.09s WALL (     204 calls)
     fft          :     14.97s CPU      3.92s WALL (     335 calls)
     ffts         :      1.19s CPU      0.32s WALL (      50 calls)
     fftw         :   1150.87s CPU    296.20s WALL (  261487 calls)
     interpolate  :      1.84s CPU      0.48s WALL (      25 calls)
 
     Parallel routines
     fft_scatt_xy :    140.81s CPU     35.49s WALL (  261872 calls)
     fft_scatt_yz :    657.84s CPU    172.09s WALL (  261872 calls)
 
     PWSCF        :      2h 7m CPU  37m46.54s WALL

 
   This run was terminated on:  18: 4:39  20Sep2021            

=------------------------------------------------------------------------------=
   JOB DONE.
=------------------------------------------------------------------------------=
