
     Program PWSCF v.6.6 starts on 17Sep2021 at  3:31:45 

     This program is part of the open-source Quantum ESPRESSO suite
     for quantum simulation of materials; please cite
         "P. Giannozzi et al., J. Phys.:Condens. Matter 21 395502 (2009);
         "P. Giannozzi et al., J. Phys.:Condens. Matter 29 465901 (2017);
          URL http://www.quantum-espresso.org", 
     in publications or presentations arising from this work. More details at
     http://www.quantum-espresso.org/quote

     Parallel version (MPI & OpenMP), running on     384 processor cores
     Number of MPI processes:                96
     Threads/MPI process:                     4

     MPI processes distributed on     8 nodes
     K-points division:     npool     =       2
     R & G space division:  proc/nbgrp/npool/nimage =      48
     Fft bands division:     nmany     =       1
     Reading input from ../inputs/input_ausurf_432

     Current dimensions of program PWSCF are:
     Max number of different atomic species (ntypx) = 10
     Max number of k-points (npk) =  40000
     Max angular momentum in pseudopotentials (lmaxx) =  3

     Subspace diagonalization in iterative solution of the eigenvalue problem:
     one sub-group per band group will be used
     ELPA distributed-memory algorithm (size of sub-group:  6*  6 procs)

     Found symmetry operation: I + (  0.1667  0.0000  0.0000)
     This is a supercell, fractional translations are disabled
 
     Parallelization info
     --------------------
     sticks:   dense  smooth     PW     G-vecs:    dense   smooth      PW
     Min         749     342     88               178137    55058    7188
     Max         751     343     89               178142    55067    7195
     Sum       35971   16449   4235              8550627  2643085  345153
 

     Title: 
      Ausurf                                                                    


     bravais-lattice index     =            8
     lattice parameter (alat)  =      33.4482  a.u.
     unit-cell volume          =   77333.9228 (a.u.)^3
     number of atoms/cell      =          432
     number of atomic types    =            1
     number of electrons       =      4752.00
     number of Kohn-Sham states=         2851
     kinetic-energy cutoff     =      40.0000  Ry
     charge density cutoff     =     350.0000  Ry
     convergence threshold     =      1.0E-06
     mixing beta               =       0.7000
     number of iterations used =            8  TF        mixing
     Exchange-correlation=  SLA  PW   PBE  PBE
                           (   1   4   3   4   0   0   0)

     celldm(1)=  33.448152  celldm(2)=   1.154701  celldm(3)=   1.789717
     celldm(4)=   0.000000  celldm(5)=   0.000000  celldm(6)=   0.000000

     crystal axes: (cart. coord. in units of alat)
               a(1) = (   1.000000   0.000000   0.000000 )  
               a(2) = (   0.000000   1.154701   0.000000 )  
               a(3) = (   0.000000   0.000000   1.789717 )  

     reciprocal axes: (cart. coord. in units 2 pi/alat)
               b(1) = (  1.000000  0.000000  0.000000 )  
               b(2) = (  0.000000  0.866025  0.000000 )  
               b(3) = (  0.000000  0.000000  0.558748 )  


     PseudoPot. # 1 for Au read from file:
     /marconi/home/userexternal/czeni000/dft_src/pseudo/Au.pbe-nd-van.UPF
     MD5 check sum: deb5c07af10777505a79e28f5b4b4115
     Pseudo is Ultrasoft + core correction, Zval = 11.0
     Generated by new atomic code, or converted to UPF format
     Using radial grid of  985 points,  3 beta functions with: 
                l(1) =   1
                l(2) =   2
                l(3) =   2
     Q(r) pseudized with  8 coefficients,  rinner =    1.100   1.100   1.100
                                                       1.100   1.100

     atomic species   valence    mass     pseudopotential
        Au            11.00   196.96000     Au( 1.00)

      2 Sym. Ops. (no inversion) found



   Cartesian axes

     site n.     atom                  positions (alat units)
         1           Au  tau(   1) = (   0.0000000   0.0000000   0.0000000  )
         2           Au  tau(   2) = (   0.1666667   0.0000000   0.0000000  )
         3           Au  tau(   3) = (   0.3333333   0.0000000   0.0000000  )
         4           Au  tau(   4) = (   0.0000000   0.2886751   0.0000000  )
         5           Au  tau(   5) = (   0.5000000   0.0000000   0.0000000  )
         6           Au  tau(   6) = (   0.1666667   0.2886751   0.0000000  )
         7           Au  tau(   7) = (   0.6666667   0.0000000   0.0000000  )
         8           Au  tau(   8) = (   0.3333333   0.2886751   0.0000000  )
         9           Au  tau(   9) = (   0.8333333   0.0000000   0.0000000  )
        10           Au  tau(  10) = (   0.0000000   0.5773503   0.0000000  )
        11           Au  tau(  11) = (   0.5000000   0.2886751   0.0000000  )
        12           Au  tau(  12) = (   0.1666667   0.5773503   0.0000000  )
        13           Au  tau(  13) = (   0.6666667   0.2886751   0.0000000  )
        14           Au  tau(  14) = (   0.3333333   0.5773503   0.0000000  )
        15           Au  tau(  15) = (   0.8333333   0.2886751   0.0000000  )
        16           Au  tau(  16) = (   0.0000000   0.8660254   0.0000000  )
        17           Au  tau(  17) = (   0.5000000   0.5773503   0.0000000  )
        18           Au  tau(  18) = (   0.1666667   0.8660254   0.0000000  )
        19           Au  tau(  19) = (   0.6666667   0.5773503   0.0000000  )
        20           Au  tau(  20) = (   0.3333333   0.8660254   0.0000000  )
        21           Au  tau(  21) = (   0.8333333   0.5773503   0.0000000  )
        22           Au  tau(  22) = (   0.5000000   0.8660254   0.0000000  )
        23           Au  tau(  23) = (   0.6666667   0.8660254   0.0000000  )
        24           Au  tau(  24) = (   0.8333333   0.8660254   0.0000000  )
        25           Au  tau(  25) = (   0.0833333   0.0481125   0.1360828  )
        26           Au  tau(  26) = (   0.2500000   0.0481125   0.1360828  )
        27           Au  tau(  27) = (   0.4166667   0.0481125   0.1360828  )
        28           Au  tau(  28) = (   0.0833333   0.3367877   0.1360828  )
        29           Au  tau(  29) = (   0.4166667   0.3367877   0.1360828  )
        30           Au  tau(  30) = (   0.5833333   0.0481125   0.1360828  )
        31           Au  tau(  31) = (   0.9166667   0.0481125   0.1360828  )
        32           Au  tau(  32) = (   0.0833333   0.6254628   0.1360828  )
        33           Au  tau(  33) = (   0.2500000   0.3367877   0.1360828  )
        34           Au  tau(  34) = (   0.2500000   0.6254628   0.1360828  )
        35           Au  tau(  35) = (   0.5833333   0.3367877   0.1360828  )
        36           Au  tau(  36) = (   0.7500000   0.0481125   0.1360828  )
        37           Au  tau(  37) = (   0.7500000   0.3367877   0.1360828  )
        38           Au  tau(  38) = (   0.1666667   0.1924501   0.1360828  )
        39           Au  tau(  39) = (   0.1666667   0.4811252   0.1360828  )
        40           Au  tau(  40) = (   0.6666667   0.1924501   0.1360828  )
        41           Au  tau(  41) = (   0.2500000   0.9141379   0.1360828  )
        42           Au  tau(  42) = (   0.4166667   0.6254628   0.1360828  )
        43           Au  tau(  43) = (   0.7500000   0.6254628   0.1360828  )
        44           Au  tau(  44) = (   0.9166667   0.3367877   0.1360828  )
        45           Au  tau(  45) = (   0.3333333   0.1924501   0.1360828  )
        46           Au  tau(  46) = (   0.5000000   0.1924501   0.1360828  )
        47           Au  tau(  47) = (   0.0833333   0.9141379   0.1360828  )
        48           Au  tau(  48) = (   0.4166667   0.9141379   0.1360828  )
        49           Au  tau(  49) = (   0.5833333   0.6254628   0.1360828  )
        50           Au  tau(  50) = (   0.5833333   0.9141379   0.1360828  )
        51           Au  tau(  51) = (   0.9166667   0.6254628   0.1360828  )
        52           Au  tau(  52) = (   0.3333333   0.4811252   0.1360828  )
        53           Au  tau(  53) = (   0.5000000   0.4811252   0.1360828  )
        54           Au  tau(  54) = (   0.5000000   0.7698003   0.1360828  )
        55           Au  tau(  55) = (   0.8333333   0.1924501   0.1360828  )
        56           Au  tau(  56) = (   1.0000000   0.1924501   0.1360828  )
        57           Au  tau(  57) = (   1.0000000   0.4811252   0.1360828  )
        58           Au  tau(  58) = (   0.7500000   0.9141379   0.1360828  )
        59           Au  tau(  59) = (   0.1666667   0.7698003   0.1360828  )
        60           Au  tau(  60) = (   0.3333333   0.7698003   0.1360828  )
        61           Au  tau(  61) = (   0.6666667   0.4811252   0.1360828  )
        62           Au  tau(  62) = (   0.8333333   0.4811252   0.1360828  )
        63           Au  tau(  63) = (   0.9166667   0.9141379   0.1360828  )
        64           Au  tau(  64) = (   0.1666667   1.0584755   0.1360828  )
        65           Au  tau(  65) = (   0.3333333   1.0584755   0.1360828  )
        66           Au  tau(  66) = (   0.6666667   0.7698003   0.1360828  )
        67           Au  tau(  67) = (   0.8333333   0.7698003   0.1360828  )
        68           Au  tau(  68) = (   0.5000000   1.0584755   0.1360828  )
        69           Au  tau(  69) = (   0.6666667   1.0584755   0.1360828  )
        70           Au  tau(  70) = (   0.8333333   1.0584755   0.1360828  )
        71           Au  tau(  71) = (   1.0000000   0.7698003   0.1360828  )
        72           Au  tau(  72) = (   1.0000000   1.0584755   0.1360828  )
        73           Au  tau(  73) = (   0.1666667   0.0962250   0.2721655  )
        74           Au  tau(  74) = (   0.4166667   0.2405626   0.2721655  )
        75           Au  tau(  75) = (   0.3333333   0.0962250   0.2721655  )
        76           Au  tau(  76) = (   0.5000000   0.0962250   0.2721655  )
        77           Au  tau(  77) = (   0.0833333   0.2405626   0.2721655  )
        78           Au  tau(  78) = (   0.2500000   0.2405626   0.2721655  )
        79           Au  tau(  79) = (   0.1666667   0.3849002   0.2721655  )
        80           Au  tau(  80) = (   0.3333333   0.3849002   0.2721655  )
        81           Au  tau(  81) = (   0.3333333   0.6735753   0.2721655  )
        82           Au  tau(  82) = (   0.3333333   0.9622505   0.2721655  )
        83           Au  tau(  83) = (   0.5000000   0.3849002   0.2721655  )
        84           Au  tau(  84) = (   0.6666667   0.0962250   0.2721655  )
        85           Au  tau(  85) = (   0.8333333   0.0962250   0.2721655  )
        86           Au  tau(  86) = (   0.8333333   0.3849002   0.2721655  )
        87           Au  tau(  87) = (   0.8333333   0.6735753   0.2721655  )
        88           Au  tau(  88) = (   1.0000000   0.0962250   0.2721655  )
        89           Au  tau(  89) = (   0.0833333   0.5292377   0.2721655  )
        90           Au  tau(  90) = (   0.0833333   0.8179129   0.2721655  )
        91           Au  tau(  91) = (   0.0833333   1.1065880   0.2721655  )
        92           Au  tau(  92) = (   0.2500000   0.5292377   0.2721655  )
        93           Au  tau(  93) = (   0.2500000   0.8179129   0.2721655  )
        94           Au  tau(  94) = (   0.5833333   0.2405626   0.2721655  )
        95           Au  tau(  95) = (   0.5833333   0.5292377   0.2721655  )
        96           Au  tau(  96) = (   0.5833333   0.8179129   0.2721655  )
        97           Au  tau(  97) = (   0.5833333   1.1065880   0.2721655  )
        98           Au  tau(  98) = (   0.7500000   0.2405626   0.2721655  )
        99           Au  tau(  99) = (   0.7500000   0.5292377   0.2721655  )
       100           Au  tau( 100) = (   0.1666667   0.6735753   0.2721655  )
       101           Au  tau( 101) = (   0.1666667   0.9622505   0.2721655  )
       102           Au  tau( 102) = (   0.5000000   0.6735753   0.2721655  )
       103           Au  tau( 103) = (   0.5000000   0.9622505   0.2721655  )
       104           Au  tau( 104) = (   0.6666667   0.3849002   0.2721655  )
       105           Au  tau( 105) = (   0.6666667   0.6735753   0.2721655  )
       106           Au  tau( 106) = (   0.6666667   0.9622505   0.2721655  )
       107           Au  tau( 107) = (   1.0000000   0.3849002   0.2721655  )
       108           Au  tau( 108) = (   1.0000000   0.6735753   0.2721655  )
       109           Au  tau( 109) = (   0.2500000   1.1065880   0.2721655  )
       110           Au  tau( 110) = (   0.4166667   0.5292377   0.2721655  )
       111           Au  tau( 111) = (   0.4166667   0.8179129   0.2721655  )
       112           Au  tau( 112) = (   0.4166667   1.1065880   0.2721655  )
       113           Au  tau( 113) = (   0.7500000   0.8179129   0.2721655  )
       114           Au  tau( 114) = (   0.9166667   0.2405626   0.2721655  )
       115           Au  tau( 115) = (   0.9166667   0.5292377   0.2721655  )
       116           Au  tau( 116) = (   0.9166667   0.8179129   0.2721655  )
       117           Au  tau( 117) = (   0.8333333   0.9622505   0.2721655  )
       118           Au  tau( 118) = (   1.0000000   0.9622505   0.2721655  )
       119           Au  tau( 119) = (   0.7500000   1.1065880   0.2721655  )
       120           Au  tau( 120) = (   0.9166667   1.1065880   0.2721655  )
       121           Au  tau( 121) = (   0.4166667   0.1443376   0.4082483  )
       122           Au  tau( 122) = (   0.0000000   0.0000000   0.4082483  )
       123           Au  tau( 123) = (   0.1666667   0.0000000   0.4082483  )
       124           Au  tau( 124) = (   0.3333333   0.0000000   0.4082483  )
       125           Au  tau( 125) = (   0.0833333   0.1443376   0.4082483  )
       126           Au  tau( 126) = (   0.0000000   0.5773503   0.4082483  )
       127           Au  tau( 127) = (   0.1666667   0.2886751   0.4082483  )
       128           Au  tau( 128) = (   0.1666667   0.5773503   0.4082483  )
       129           Au  tau( 129) = (   0.3333333   0.2886751   0.4082483  )
       130           Au  tau( 130) = (   0.5000000   0.2886751   0.4082483  )
       131           Au  tau( 131) = (   0.6666667   0.0000000   0.4082483  )
       132           Au  tau( 132) = (   0.6666667   0.2886751   0.4082483  )
       133           Au  tau( 133) = (   0.8333333   0.0000000   0.4082483  )
       134           Au  tau( 134) = (   0.0833333   0.4330127   0.4082483  )
       135           Au  tau( 135) = (   0.2500000   0.1443376   0.4082483  )
       136           Au  tau( 136) = (   0.2500000   0.4330127   0.4082483  )
       137           Au  tau( 137) = (   0.4166667   0.4330127   0.4082483  )
       138           Au  tau( 138) = (   0.5833333   0.1443376   0.4082483  )
       139           Au  tau( 139) = (   0.7500000   0.1443376   0.4082483  )
       140           Au  tau( 140) = (   0.9166667   0.1443376   0.4082483  )
       141           Au  tau( 141) = (   0.0000000   0.2886751   0.4082483  )
       142           Au  tau( 142) = (   0.1666667   0.8660254   0.4082483  )
       143           Au  tau( 143) = (   0.3333333   0.8660254   0.4082483  )
       144           Au  tau( 144) = (   0.5000000   0.0000000   0.4082483  )
       145           Au  tau( 145) = (   0.5000000   0.8660254   0.4082483  )
       146           Au  tau( 146) = (   0.6666667   0.5773503   0.4082483  )
       147           Au  tau( 147) = (   0.8333333   0.5773503   0.4082483  )
       148           Au  tau( 148) = (   0.0833333   0.7216879   0.4082483  )
       149           Au  tau( 149) = (   0.0833333   1.0103630   0.4082483  )
       150           Au  tau( 150) = (   0.2500000   0.7216879   0.4082483  )
       151           Au  tau( 151) = (   0.2500000   1.0103630   0.4082483  )
       152           Au  tau( 152) = (   0.4166667   0.7216879   0.4082483  )
       153           Au  tau( 153) = (   0.5833333   0.4330127   0.4082483  )
       154           Au  tau( 154) = (   0.5833333   0.7216879   0.4082483  )
       155           Au  tau( 155) = (   0.7500000   0.4330127   0.4082483  )
       156           Au  tau( 156) = (   0.7500000   0.7216879   0.4082483  )
       157           Au  tau( 157) = (   0.9166667   0.4330127   0.4082483  )
       158           Au  tau( 158) = (   0.0000000   0.8660254   0.4082483  )
       159           Au  tau( 159) = (   0.3333333   0.5773503   0.4082483  )
       160           Au  tau( 160) = (   0.5000000   0.5773503   0.4082483  )
       161           Au  tau( 161) = (   0.6666667   0.8660254   0.4082483  )
       162           Au  tau( 162) = (   0.8333333   0.2886751   0.4082483  )
       163           Au  tau( 163) = (   0.8333333   0.8660254   0.4082483  )
       164           Au  tau( 164) = (   0.4166667   1.0103630   0.4082483  )
       165           Au  tau( 165) = (   0.5833333   1.0103630   0.4082483  )
       166           Au  tau( 166) = (   0.7500000   1.0103630   0.4082483  )
       167           Au  tau( 167) = (   0.9166667   0.7216879   0.4082483  )
       168           Au  tau( 168) = (   0.9166667   1.0103630   0.4082483  )
       169           Au  tau( 169) = (   0.0833333   0.3367877   0.5443311  )
       170           Au  tau( 170) = (   0.5833333   0.0481125   0.5443311  )
       171           Au  tau( 171) = (   0.3333333   0.1924501   0.5443311  )
       172           Au  tau( 172) = (   0.0833333   0.0481125   0.5443311  )
       173           Au  tau( 173) = (   0.2500000   0.0481125   0.5443311  )
       174           Au  tau( 174) = (   0.2500000   0.3367877   0.5443311  )
       175           Au  tau( 175) = (   0.4166667   0.0481125   0.5443311  )
       176           Au  tau( 176) = (   0.7500000   0.0481125   0.5443311  )
       177           Au  tau( 177) = (   0.1666667   0.1924501   0.5443311  )
       178           Au  tau( 178) = (   0.1666667   0.4811252   0.5443311  )
       179           Au  tau( 179) = (   0.3333333   0.4811252   0.5443311  )
       180           Au  tau( 180) = (   0.5000000   0.1924501   0.5443311  )
       181           Au  tau( 181) = (   0.6666667   0.1924501   0.5443311  )
       182           Au  tau( 182) = (   0.8333333   0.1924501   0.5443311  )
       183           Au  tau( 183) = (   0.0833333   0.6254628   0.5443311  )
       184           Au  tau( 184) = (   0.0833333   0.9141379   0.5443311  )
       185           Au  tau( 185) = (   0.2500000   0.6254628   0.5443311  )
       186           Au  tau( 186) = (   0.2500000   0.9141379   0.5443311  )
       187           Au  tau( 187) = (   0.4166667   0.3367877   0.5443311  )
       188           Au  tau( 188) = (   0.4166667   0.6254628   0.5443311  )
       189           Au  tau( 189) = (   0.4166667   0.9141379   0.5443311  )
       190           Au  tau( 190) = (   0.5833333   0.3367877   0.5443311  )
       191           Au  tau( 191) = (   0.5833333   0.6254628   0.5443311  )
       192           Au  tau( 192) = (   0.5833333   0.9141379   0.5443311  )
       193           Au  tau( 193) = (   0.7500000   0.3367877   0.5443311  )
       194           Au  tau( 194) = (   0.7500000   0.6254628   0.5443311  )
       195           Au  tau( 195) = (   0.7500000   0.9141379   0.5443311  )
       196           Au  tau( 196) = (   0.9166667   0.0481125   0.5443311  )
       197           Au  tau( 197) = (   0.9166667   0.3367877   0.5443311  )
       198           Au  tau( 198) = (   0.9166667   0.6254628   0.5443311  )
       199           Au  tau( 199) = (   0.1666667   0.7698003   0.5443311  )
       200           Au  tau( 200) = (   0.1666667   1.0584755   0.5443311  )
       201           Au  tau( 201) = (   0.3333333   0.7698003   0.5443311  )
       202           Au  tau( 202) = (   0.3333333   1.0584755   0.5443311  )
       203           Au  tau( 203) = (   0.5000000   0.4811252   0.5443311  )
       204           Au  tau( 204) = (   0.5000000   0.7698003   0.5443311  )
       205           Au  tau( 205) = (   0.5000000   1.0584755   0.5443311  )
       206           Au  tau( 206) = (   0.6666667   0.4811252   0.5443311  )
       207           Au  tau( 207) = (   0.6666667   0.7698003   0.5443311  )
       208           Au  tau( 208) = (   0.8333333   0.4811252   0.5443311  )
       209           Au  tau( 209) = (   0.8333333   0.7698003   0.5443311  )
       210           Au  tau( 210) = (   1.0000000   0.1924501   0.5443311  )
       211           Au  tau( 211) = (   1.0000000   0.4811252   0.5443311  )
       212           Au  tau( 212) = (   1.0000000   0.7698003   0.5443311  )
       213           Au  tau( 213) = (   1.0000000   1.0584755   0.5443311  )
       214           Au  tau( 214) = (   0.9166667   0.9141379   0.5443311  )
       215           Au  tau( 215) = (   0.6666667   1.0584755   0.5443311  )
       216           Au  tau( 216) = (   0.8333333   1.0584755   0.5443311  )
       217           Au  tau( 217) = (   0.1666667   0.0962250   0.6804138  )
       218           Au  tau( 218) = (   0.3333333   0.0962250   0.6804138  )
       219           Au  tau( 219) = (   0.5000000   0.0962250   0.6804138  )
       220           Au  tau( 220) = (   0.0833333   0.2405626   0.6804138  )
       221           Au  tau( 221) = (   0.2500000   0.2405626   0.6804138  )
       222           Au  tau( 222) = (   0.2500000   0.5292377   0.6804138  )
       223           Au  tau( 223) = (   0.7500000   0.2405626   0.6804138  )
       224           Au  tau( 224) = (   0.1666667   0.3849002   0.6804138  )
       225           Au  tau( 225) = (   0.1666667   0.6735753   0.6804138  )
       226           Au  tau( 226) = (   0.1666667   0.9622505   0.6804138  )
       227           Au  tau( 227) = (   0.3333333   0.3849002   0.6804138  )
       228           Au  tau( 228) = (   0.3333333   0.6735753   0.6804138  )
       229           Au  tau( 229) = (   0.3333333   0.9622505   0.6804138  )
       230           Au  tau( 230) = (   0.5000000   0.3849002   0.6804138  )
       231           Au  tau( 231) = (   0.5000000   0.6735753   0.6804138  )
       232           Au  tau( 232) = (   0.5000000   0.9622505   0.6804138  )
       233           Au  tau( 233) = (   0.6666667   0.0962250   0.6804138  )
       234           Au  tau( 234) = (   0.6666667   0.3849002   0.6804138  )
       235           Au  tau( 235) = (   0.6666667   0.6735753   0.6804138  )
       236           Au  tau( 236) = (   0.6666667   0.9622505   0.6804138  )
       237           Au  tau( 237) = (   0.8333333   0.0962250   0.6804138  )
       238           Au  tau( 238) = (   0.8333333   0.3849002   0.6804138  )
       239           Au  tau( 239) = (   0.8333333   0.6735753   0.6804138  )
       240           Au  tau( 240) = (   1.0000000   0.0962250   0.6804138  )
       241           Au  tau( 241) = (   1.0000000   0.3849002   0.6804138  )
       242           Au  tau( 242) = (   1.0000000   0.6735753   0.6804138  )
       243           Au  tau( 243) = (   0.0833333   0.5292377   0.6804138  )
       244           Au  tau( 244) = (   0.0833333   0.8179129   0.6804138  )
       245           Au  tau( 245) = (   0.0833333   1.1065880   0.6804138  )
       246           Au  tau( 246) = (   0.2500000   0.8179129   0.6804138  )
       247           Au  tau( 247) = (   0.2500000   1.1065880   0.6804138  )
       248           Au  tau( 248) = (   0.4166667   0.2405626   0.6804138  )
       249           Au  tau( 249) = (   0.4166667   0.5292377   0.6804138  )
       250           Au  tau( 250) = (   0.4166667   0.8179129   0.6804138  )
       251           Au  tau( 251) = (   0.4166667   1.1065880   0.6804138  )
       252           Au  tau( 252) = (   0.5833333   0.2405626   0.6804138  )
       253           Au  tau( 253) = (   0.5833333   0.5292377   0.6804138  )
       254           Au  tau( 254) = (   0.5833333   0.8179129   0.6804138  )
       255           Au  tau( 255) = (   0.7500000   0.5292377   0.6804138  )
       256           Au  tau( 256) = (   0.7500000   0.8179129   0.6804138  )
       257           Au  tau( 257) = (   0.9166667   0.2405626   0.6804138  )
       258           Au  tau( 258) = (   0.9166667   0.5292377   0.6804138  )
       259           Au  tau( 259) = (   0.9166667   0.8179129   0.6804138  )
       260           Au  tau( 260) = (   0.8333333   0.9622505   0.6804138  )
       261           Au  tau( 261) = (   1.0000000   0.9622505   0.6804138  )
       262           Au  tau( 262) = (   0.5833333   1.1065880   0.6804138  )
       263           Au  tau( 263) = (   0.7500000   1.1065880   0.6804138  )
       264           Au  tau( 264) = (   0.9166667   1.1065880   0.6804138  )
       265           Au  tau( 265) = (   0.0000000   0.0000000   0.8164966  )
       266           Au  tau( 266) = (   0.0000000   0.2886751   0.8164966  )
       267           Au  tau( 267) = (   0.1666667   0.0000000   0.8164966  )
       268           Au  tau( 268) = (   0.1666667   0.2886751   0.8164966  )
       269           Au  tau( 269) = (   0.3333333   0.0000000   0.8164966  )
       270           Au  tau( 270) = (   0.5000000   0.0000000   0.8164966  )
       271           Au  tau( 271) = (   0.6666667   0.0000000   0.8164966  )
       272           Au  tau( 272) = (   0.0833333   0.1443376   0.8164966  )
       273           Au  tau( 273) = (   0.2500000   0.1443376   0.8164966  )
       274           Au  tau( 274) = (   0.4166667   0.1443376   0.8164966  )
       275           Au  tau( 275) = (   0.0000000   0.8660254   0.8164966  )
       276           Au  tau( 276) = (   0.1666667   0.5773503   0.8164966  )
       277           Au  tau( 277) = (   0.1666667   0.8660254   0.8164966  )
       278           Au  tau( 278) = (   0.3333333   0.5773503   0.8164966  )
       279           Au  tau( 279) = (   0.3333333   0.8660254   0.8164966  )
       280           Au  tau( 280) = (   0.5000000   0.5773503   0.8164966  )
       281           Au  tau( 281) = (   0.5000000   0.8660254   0.8164966  )
       282           Au  tau( 282) = (   0.6666667   0.2886751   0.8164966  )
       283           Au  tau( 283) = (   0.6666667   0.5773503   0.8164966  )
       284           Au  tau( 284) = (   0.6666667   0.8660254   0.8164966  )
       285           Au  tau( 285) = (   0.8333333   0.2886751   0.8164966  )
       286           Au  tau( 286) = (   0.8333333   0.5773503   0.8164966  )
       287           Au  tau( 287) = (   0.8333333   0.8660254   0.8164966  )
       288           Au  tau( 288) = (   0.0833333   0.4330127   0.8164966  )
       289           Au  tau( 289) = (   0.0833333   0.7216879   0.8164966  )
       290           Au  tau( 290) = (   0.0833333   1.0103630   0.8164966  )
       291           Au  tau( 291) = (   0.2500000   0.4330127   0.8164966  )
       292           Au  tau( 292) = (   0.2500000   0.7216879   0.8164966  )
       293           Au  tau( 293) = (   0.2500000   1.0103630   0.8164966  )
       294           Au  tau( 294) = (   0.4166667   0.4330127   0.8164966  )
       295           Au  tau( 295) = (   0.4166667   0.7216879   0.8164966  )
       296           Au  tau( 296) = (   0.4166667   1.0103630   0.8164966  )
       297           Au  tau( 297) = (   0.5833333   0.1443376   0.8164966  )
       298           Au  tau( 298) = (   0.5833333   0.4330127   0.8164966  )
       299           Au  tau( 299) = (   0.5833333   0.7216879   0.8164966  )
       300           Au  tau( 300) = (   0.5833333   1.0103630   0.8164966  )
       301           Au  tau( 301) = (   0.7500000   0.1443376   0.8164966  )
       302           Au  tau( 302) = (   0.7500000   0.4330127   0.8164966  )
       303           Au  tau( 303) = (   0.7500000   0.7216879   0.8164966  )
       304           Au  tau( 304) = (   0.9166667   0.1443376   0.8164966  )
       305           Au  tau( 305) = (   0.9166667   0.4330127   0.8164966  )
       306           Au  tau( 306) = (   0.9166667   0.7216879   0.8164966  )
       307           Au  tau( 307) = (   0.0000000   0.5773503   0.8164966  )
       308           Au  tau( 308) = (   0.3333333   0.2886751   0.8164966  )
       309           Au  tau( 309) = (   0.5000000   0.2886751   0.8164966  )
       310           Au  tau( 310) = (   0.8333333   0.0000000   0.8164966  )
       311           Au  tau( 311) = (   0.7500000   1.0103630   0.8164966  )
       312           Au  tau( 312) = (   0.9166667   1.0103630   0.8164966  )
       313           Au  tau( 313) = (   0.0833333   0.6254628   0.9525793  )
       314           Au  tau( 314) = (   0.2500000   0.6254628   0.9525793  )
       315           Au  tau( 315) = (   0.4166667   0.6254628   0.9525793  )
       316           Au  tau( 316) = (   0.5833333   0.3367877   0.9525793  )
       317           Au  tau( 317) = (   0.7500000   0.3367877   0.9525793  )
       318           Au  tau( 318) = (   0.9166667   0.3367877   0.9525793  )
       319           Au  tau( 319) = (   0.1666667   0.7698003   0.9525793  )
       320           Au  tau( 320) = (   0.3333333   0.4811252   0.9525793  )
       321           Au  tau( 321) = (   0.5000000   0.4811252   0.9525793  )
       322           Au  tau( 322) = (   0.6666667   0.4811252   0.9525793  )
       323           Au  tau( 323) = (   0.8333333   0.1924501   0.9525793  )
       324           Au  tau( 324) = (   1.0000000   0.1924501   0.9525793  )
       325           Au  tau( 325) = (   0.0833333   0.0481125   0.9525793  )
       326           Au  tau( 326) = (   0.0833333   0.3367877   0.9525793  )
       327           Au  tau( 327) = (   0.0833333   0.9141379   0.9525793  )
       328           Au  tau( 328) = (   0.2500000   0.0481125   0.9525793  )
       329           Au  tau( 329) = (   0.2500000   0.3367877   0.9525793  )
       330           Au  tau( 330) = (   0.4166667   0.0481125   0.9525793  )
       331           Au  tau( 331) = (   0.4166667   0.3367877   0.9525793  )
       332           Au  tau( 332) = (   0.5833333   0.0481125   0.9525793  )
       333           Au  tau( 333) = (   0.5833333   0.6254628   0.9525793  )
       334           Au  tau( 334) = (   0.7500000   0.0481125   0.9525793  )
       335           Au  tau( 335) = (   0.9166667   0.0481125   0.9525793  )
       336           Au  tau( 336) = (   0.1666667   0.1924501   0.9525793  )
       337           Au  tau( 337) = (   0.1666667   0.4811252   0.9525793  )
       338           Au  tau( 338) = (   0.1666667   1.0584755   0.9525793  )
       339           Au  tau( 339) = (   0.3333333   0.1924501   0.9525793  )
       340           Au  tau( 340) = (   0.3333333   0.7698003   0.9525793  )
       341           Au  tau( 341) = (   0.5000000   0.1924501   0.9525793  )
       342           Au  tau( 342) = (   0.5000000   0.7698003   0.9525793  )
       343           Au  tau( 343) = (   0.6666667   0.1924501   0.9525793  )
       344           Au  tau( 344) = (   0.6666667   0.7698003   0.9525793  )
       345           Au  tau( 345) = (   0.8333333   0.4811252   0.9525793  )
       346           Au  tau( 346) = (   1.0000000   0.4811252   0.9525793  )
       347           Au  tau( 347) = (   0.2500000   0.9141379   0.9525793  )
       348           Au  tau( 348) = (   0.4166667   0.9141379   0.9525793  )
       349           Au  tau( 349) = (   0.5833333   0.9141379   0.9525793  )
       350           Au  tau( 350) = (   0.7500000   0.6254628   0.9525793  )
       351           Au  tau( 351) = (   0.7500000   0.9141379   0.9525793  )
       352           Au  tau( 352) = (   0.9166667   0.6254628   0.9525793  )
       353           Au  tau( 353) = (   0.9166667   0.9141379   0.9525793  )
       354           Au  tau( 354) = (   0.3333333   1.0584755   0.9525793  )
       355           Au  tau( 355) = (   0.5000000   1.0584755   0.9525793  )
       356           Au  tau( 356) = (   0.6666667   1.0584755   0.9525793  )
       357           Au  tau( 357) = (   0.8333333   0.7698003   0.9525793  )
       358           Au  tau( 358) = (   0.8333333   1.0584755   0.9525793  )
       359           Au  tau( 359) = (   1.0000000   0.7698003   0.9525793  )
       360           Au  tau( 360) = (   1.0000000   1.0584755   0.9525793  )
       361           Au  tau( 361) = (   0.1666667   0.6735753   1.0886621  )
       362           Au  tau( 362) = (   0.3333333   0.6735753   1.0886621  )
       363           Au  tau( 363) = (   0.5000000   0.3849002   1.0886621  )
       364           Au  tau( 364) = (   0.6666667   0.3849002   1.0886621  )
       365           Au  tau( 365) = (   0.8333333   0.3849002   1.0886621  )
       366           Au  tau( 366) = (   1.0000000   0.0962250   1.0886621  )
       367           Au  tau( 367) = (   0.0833333   0.8179129   1.0886621  )
       368           Au  tau( 368) = (   0.2500000   0.5292377   1.0886621  )
       369           Au  tau( 369) = (   0.4166667   0.5292377   1.0886621  )
       370           Au  tau( 370) = (   0.5833333   0.5292377   1.0886621  )
       371           Au  tau( 371) = (   0.7500000   0.2405626   1.0886621  )
       372           Au  tau( 372) = (   0.9166667   0.2405626   1.0886621  )
       373           Au  tau( 373) = (   0.1666667   0.0962250   1.0886621  )
       374           Au  tau( 374) = (   0.1666667   0.3849002   1.0886621  )
       375           Au  tau( 375) = (   0.1666667   0.9622505   1.0886621  )
       376           Au  tau( 376) = (   0.3333333   0.0962250   1.0886621  )
       377           Au  tau( 377) = (   0.3333333   0.3849002   1.0886621  )
       378           Au  tau( 378) = (   0.5000000   0.0962250   1.0886621  )
       379           Au  tau( 379) = (   0.5000000   0.6735753   1.0886621  )
       380           Au  tau( 380) = (   0.6666667   0.0962250   1.0886621  )
       381           Au  tau( 381) = (   0.6666667   0.6735753   1.0886621  )
       382           Au  tau( 382) = (   0.8333333   0.0962250   1.0886621  )
       383           Au  tau( 383) = (   1.0000000   0.3849002   1.0886621  )
       384           Au  tau( 384) = (   0.0833333   0.2405626   1.0886621  )
       385           Au  tau( 385) = (   0.0833333   0.5292377   1.0886621  )
       386           Au  tau( 386) = (   0.0833333   1.1065880   1.0886621  )
       387           Au  tau( 387) = (   0.2500000   0.2405626   1.0886621  )
       388           Au  tau( 388) = (   0.2500000   0.8179129   1.0886621  )
       389           Au  tau( 389) = (   0.4166667   0.2405626   1.0886621  )
       390           Au  tau( 390) = (   0.4166667   0.8179129   1.0886621  )
       391           Au  tau( 391) = (   0.5833333   0.2405626   1.0886621  )
       392           Au  tau( 392) = (   0.5833333   0.8179129   1.0886621  )
       393           Au  tau( 393) = (   0.7500000   0.5292377   1.0886621  )
       394           Au  tau( 394) = (   0.9166667   0.5292377   1.0886621  )
       395           Au  tau( 395) = (   0.3333333   0.9622505   1.0886621  )
       396           Au  tau( 396) = (   0.5000000   0.9622505   1.0886621  )
       397           Au  tau( 397) = (   0.6666667   0.9622505   1.0886621  )
       398           Au  tau( 398) = (   0.8333333   0.6735753   1.0886621  )
       399           Au  tau( 399) = (   0.8333333   0.9622505   1.0886621  )
       400           Au  tau( 400) = (   1.0000000   0.6735753   1.0886621  )
       401           Au  tau( 401) = (   1.0000000   0.9622505   1.0886621  )
       402           Au  tau( 402) = (   0.2500000   1.1065880   1.0886621  )
       403           Au  tau( 403) = (   0.4166667   1.1065880   1.0886621  )
       404           Au  tau( 404) = (   0.5833333   1.1065880   1.0886621  )
       405           Au  tau( 405) = (   0.7500000   0.8179129   1.0886621  )
       406           Au  tau( 406) = (   0.7500000   1.1065880   1.0886621  )
       407           Au  tau( 407) = (   0.9166667   0.8179129   1.0886621  )
       408           Au  tau( 408) = (   0.9166667   1.1065880   1.0886621  )
       409           Au  tau( 409) = (   0.0833333   0.7216879   1.2247449  )
       410           Au  tau( 410) = (   0.2500000   0.7216879   1.2247449  )
       411           Au  tau( 411) = (   0.4166667   0.4330127   1.2247449  )
       412           Au  tau( 412) = (   0.5833333   0.4330127   1.2247449  )
       413           Au  tau( 413) = (   0.7500000   0.4330127   1.2247449  )
       414           Au  tau( 414) = (   0.9166667   0.1443376   1.2247449  )
       415           Au  tau( 415) = (   0.0833333   0.1443376   1.2247449  )
       416           Au  tau( 416) = (   0.0833333   0.4330127   1.2247449  )
       417           Au  tau( 417) = (   0.0833333   1.0103630   1.2247449  )
       418           Au  tau( 418) = (   0.2500000   0.1443376   1.2247449  )
       419           Au  tau( 419) = (   0.2500000   0.4330127   1.2247449  )
       420           Au  tau( 420) = (   0.4166667   0.1443376   1.2247449  )
       421           Au  tau( 421) = (   0.4166667   0.7216879   1.2247449  )
       422           Au  tau( 422) = (   0.5833333   0.1443376   1.2247449  )
       423           Au  tau( 423) = (   0.5833333   0.7216879   1.2247449  )
       424           Au  tau( 424) = (   0.7500000   0.1443376   1.2247449  )
       425           Au  tau( 425) = (   0.9166667   0.4330127   1.2247449  )
       426           Au  tau( 426) = (   0.5833333   1.0103630   1.2247449  )
       427           Au  tau( 427) = (   0.7500000   1.0103630   1.2247449  )
       428           Au  tau( 428) = (   0.9166667   1.0103630   1.2247449  )
       429           Au  tau( 429) = (   0.2500000   1.0103630   1.2247449  )
       430           Au  tau( 430) = (   0.4166667   1.0103630   1.2247449  )
       431           Au  tau( 431) = (   0.7500000   0.7216879   1.2247449  )
       432           Au  tau( 432) = (   0.9166667   0.7216879   1.2247449  )

     number of k points=     4  Marzari-Vanderbilt smearing, width (Ry)=  0.0500
                       cart. coord. in units 2pi/alat
        k(    1) = (   0.1250000   0.1082532   0.0000000), wk =   0.5000000
        k(    2) = (   0.1250000   0.3247595   0.0000000), wk =   0.5000000
        k(    3) = (   0.3750000   0.1082532   0.0000000), wk =   0.5000000
        k(    4) = (   0.3750000   0.3247595   0.0000000), wk =   0.5000000

     Dense  grid:  8550627 G-vectors     FFT dimensions: ( 200, 240, 360)

     Smooth grid:  2643085 G-vectors     FFT dimensions: ( 135, 160, 243)

     Estimated max dynamical RAM per process >       3.58 GB

     Estimated total dynamical RAM >     344.04 GB

     Initial potential from superposition of free atoms

     starting charge 4746.98365, renormalised to 4752.00000

     negative rho (up, down):  1.152E+01 0.000E+00
     Starting wfcs are 3888 randomized atomic wfcs

     total cpu time spent up to now is       96.4 secs

     Self-consistent Calculation

     iteration #  1     ecut=    40.00 Ry     beta= 0.70
     Davidson diagonalization with overlap
     ethr =  1.00E-02,  avg # of iterations =  3.0

     Threshold (ethr) on eigenvalues was too large:
     Diagonalizing with lowered threshold

     Davidson diagonalization with overlap
     ethr =  3.34E-04,  avg # of iterations =  3.2

     negative rho (up, down):  1.095E+01 0.000E+00

     total cpu time spent up to now is      584.6 secs

     total energy              =  -44077.60687455 Ry
     estimated scf accuracy    <      18.95528140 Ry

     iteration #  2     ecut=    40.00 Ry     beta= 0.70
     Davidson diagonalization with overlap
     ethr =  3.99E-04,  avg # of iterations =  1.2

     negative rho (up, down):  1.157E+01 0.000E+00

     total cpu time spent up to now is      780.8 secs

     total energy              =  -44078.47282195 Ry
     estimated scf accuracy    <       8.44537663 Ry

     iteration #  3     ecut=    40.00 Ry     beta= 0.70
     Davidson diagonalization with overlap
     ethr =  1.78E-04,  avg # of iterations =  3.2

     negative rho (up, down):  1.215E+01 0.000E+00

     total cpu time spent up to now is     1003.9 secs

     total energy              =  -44078.42256432 Ry
     estimated scf accuracy    <       4.94696342 Ry

     iteration #  4     ecut=    40.00 Ry     beta= 0.70
     Davidson diagonalization with overlap
     ethr =  1.04E-04,  avg # of iterations = 14.8

     negative rho (up, down):  1.214E+01 0.000E+00

     total cpu time spent up to now is     1393.2 secs

     total energy              =  -44078.34578066 Ry
     estimated scf accuracy    <       2.42270069 Ry

     iteration #  5     ecut=    40.00 Ry     beta= 0.70
     Davidson diagonalization with overlap
     c_bands:  1 eigenvalues not converged
     ethr =  5.10E-05,  avg # of iterations = 18.8

     negative rho (up, down):  1.185E+01 0.000E+00

     total cpu time spent up to now is     1700.2 secs

     total energy              =  -44078.30804130 Ry
     estimated scf accuracy    <       1.48490170 Ry

     iteration #  6     ecut=    40.00 Ry     beta= 0.70
     Davidson diagonalization with overlap
     c_bands:  2 eigenvalues not converged
     ethr =  3.12E-05,  avg # of iterations = 17.0

     negative rho (up, down):  1.186E+01 0.000E+00

     total cpu time spent up to now is     1994.4 secs

     total energy              =  -44078.27800310 Ry
     estimated scf accuracy    <       1.43277101 Ry

     iteration #  7     ecut=    40.00 Ry     beta= 0.70
     Davidson diagonalization with overlap
     ethr =  3.02E-05,  avg # of iterations =  6.2

     negative rho (up, down):  1.179E+01 0.000E+00

     total cpu time spent up to now is     2298.6 secs

     total energy              =  -44078.34988964 Ry
     estimated scf accuracy    <       1.48351517 Ry

     iteration #  8     ecut=    40.00 Ry     beta= 0.70
     Davidson diagonalization with overlap
     ethr =  3.02E-05,  avg # of iterations =  1.5

     negative rho (up, down):  1.176E+01 0.000E+00

     total cpu time spent up to now is     2566.6 secs

     total energy              =  -44078.45050542 Ry
     estimated scf accuracy    <       1.39740900 Ry

     iteration #  9     ecut=    40.00 Ry     beta= 0.70
     Davidson diagonalization with overlap
     ethr =  2.94E-05,  avg # of iterations =  4.0

     negative rho (up, down):  1.218E+01 0.000E+00

     total cpu time spent up to now is     2794.8 secs

     total energy              =  -44077.67623894 Ry
     estimated scf accuracy    <       4.48169803 Ry

     iteration # 10     ecut=    40.00 Ry     beta= 0.70
     Davidson diagonalization with overlap
     c_bands:  1 eigenvalues not converged
     c_bands:  2 eigenvalues not converged
     ethr =  2.94E-05,  avg # of iterations = 22.5

     negative rho (up, down):  1.246E+01 0.000E+00

     total cpu time spent up to now is     3371.9 secs

     total energy              =  -44078.83956181 Ry
     estimated scf accuracy    <       6.27345074 Ry

     iteration # 11     ecut=    40.00 Ry     beta= 0.70
     Davidson diagonalization with overlap
     ethr =  2.94E-05,  avg # of iterations = 10.0

     negative rho (up, down):  1.254E+01 0.000E+00

     total cpu time spent up to now is     3621.8 secs

     total energy              =  -44078.65410861 Ry
     estimated scf accuracy    <      10.48632810 Ry

     iteration # 12     ecut=    40.00 Ry     beta= 0.70
     Davidson diagonalization with overlap
     ethr =  2.94E-05,  avg # of iterations =  1.8

     negative rho (up, down):  1.253E+01 0.000E+00

     total cpu time spent up to now is     3831.0 secs

     total energy              =  -44078.60860795 Ry
     estimated scf accuracy    <       7.07101162 Ry

     iteration # 13     ecut=    40.00 Ry     beta= 0.70
     Davidson diagonalization with overlap
     ethr =  2.94E-05,  avg # of iterations =  1.0

     negative rho (up, down):  1.238E+01 0.000E+00

     total cpu time spent up to now is     4013.8 secs

     total energy              =  -44077.92507188 Ry
     estimated scf accuracy    <       6.26569212 Ry

     iteration # 14     ecut=    40.00 Ry     beta= 0.70
     Davidson diagonalization with overlap
     ethr =  2.94E-05,  avg # of iterations =  5.8

     negative rho (up, down):  1.248E+01 0.000E+00

     total cpu time spent up to now is     4265.2 secs

     total energy              =  -44078.16358961 Ry
     estimated scf accuracy    <       0.25576339 Ry

     iteration # 15     ecut=    40.00 Ry     beta= 0.70
     Davidson diagonalization with overlap
     c_bands:  1 eigenvalues not converged
     ethr =  5.38E-06,  avg # of iterations = 17.5

     negative rho (up, down):  1.209E+01 0.000E+00

     total cpu time spent up to now is     4638.1 secs

     total energy              =  -44078.07563668 Ry
     estimated scf accuracy    <       0.54107254 Ry

     iteration # 16     ecut=    40.00 Ry     beta= 0.70
     Davidson diagonalization with overlap
     ethr =  5.38E-06,  avg # of iterations = 12.5

     negative rho (up, down):  1.195E+01 0.000E+00

     total cpu time spent up to now is     5138.0 secs

     total energy              =  -44078.22114860 Ry
     estimated scf accuracy    <       0.38539136 Ry

     iteration # 17     ecut=    40.00 Ry     beta= 0.70
     Davidson diagonalization with overlap
     ethr =  5.38E-06,  avg # of iterations =  2.0

     negative rho (up, down):  1.201E+01 0.000E+00

     total cpu time spent up to now is     5355.1 secs

     total energy              =  -44078.16956929 Ry
     estimated scf accuracy    <       0.57423586 Ry

     iteration # 18     ecut=    40.00 Ry     beta= 0.70
     Davidson diagonalization with overlap
     ethr =  5.38E-06,  avg # of iterations =  7.8

     negative rho (up, down):  1.189E+01 0.000E+00

     total cpu time spent up to now is     5628.2 secs

     total energy              =  -44078.13585062 Ry
     estimated scf accuracy    <       0.35720847 Ry

     iteration # 19     ecut=    40.00 Ry     beta= 0.70
     Davidson diagonalization with overlap
     ethr =  5.38E-06,  avg # of iterations =  7.5

     negative rho (up, down):  1.182E+01 0.000E+00

     total cpu time spent up to now is     5871.2 secs

     total energy              =  -44078.13929204 Ry
     estimated scf accuracy    <       0.06201445 Ry

     iteration # 20     ecut=    40.00 Ry     beta= 0.70
     Davidson diagonalization with overlap
     c_bands:  1 eigenvalues not converged
     ethr =  1.31E-06,  avg # of iterations = 14.5

     negative rho (up, down):  1.177E+01 0.000E+00

     total cpu time spent up to now is     6186.5 secs

     total energy              =  -44078.13958743 Ry
     estimated scf accuracy    <       0.01089104 Ry

     iteration # 21     ecut=    40.00 Ry     beta= 0.70
     Davidson diagonalization with overlap
     ethr =  2.29E-07,  avg # of iterations = 11.0

     negative rho (up, down):  1.176E+01 0.000E+00

     total cpu time spent up to now is     6462.2 secs

     total energy              =  -44078.13980188 Ry
     estimated scf accuracy    <       0.00206061 Ry

     iteration # 22     ecut=    40.00 Ry     beta= 0.70
     Davidson diagonalization with overlap
     ethr =  4.34E-08,  avg # of iterations =  6.5

     negative rho (up, down):  1.176E+01 0.000E+00

     total cpu time spent up to now is     6727.2 secs

     total energy              =  -44078.13999805 Ry
     estimated scf accuracy    <       0.00078491 Ry

     iteration # 23     ecut=    40.00 Ry     beta= 0.70
     Davidson diagonalization with overlap
     ethr =  1.65E-08,  avg # of iterations =  5.0

     negative rho (up, down):  1.175E+01 0.000E+00

     total cpu time spent up to now is     6970.4 secs

     total energy              =  -44078.14016690 Ry
     estimated scf accuracy    <       0.00071826 Ry

     iteration # 24     ecut=    40.00 Ry     beta= 0.70
     Davidson diagonalization with overlap
     ethr =  1.51E-08,  avg # of iterations =  3.8

     negative rho (up, down):  1.175E+01 0.000E+00

     total cpu time spent up to now is     7194.3 secs

     total energy              =  -44078.14016973 Ry
     estimated scf accuracy    <       0.00010804 Ry

     iteration # 25     ecut=    40.00 Ry     beta= 0.70
     Davidson diagonalization with overlap
     ethr =  2.27E-09,  avg # of iterations =  3.0

     negative rho (up, down):  1.175E+01 0.000E+00

     total cpu time spent up to now is     7433.7 secs

     total energy              =  -44078.14018640 Ry
     estimated scf accuracy    <       0.00007844 Ry

     iteration # 26     ecut=    40.00 Ry     beta= 0.70
     Davidson diagonalization with overlap
     ethr =  1.65E-09,  avg # of iterations =  2.0

     negative rho (up, down):  1.175E+01 0.000E+00

     total cpu time spent up to now is     7649.6 secs

     total energy              =  -44078.14019326 Ry
     estimated scf accuracy    <       0.00000980 Ry

     iteration # 27     ecut=    40.00 Ry     beta= 0.70
     Davidson diagonalization with overlap
     ethr =  2.06E-10,  avg # of iterations =  2.0

     negative rho (up, down):  1.175E+01 0.000E+00

     total cpu time spent up to now is     7863.0 secs

     total energy              =  -44078.14019526 Ry
     estimated scf accuracy    <       0.00000189 Ry

     iteration # 28     ecut=    40.00 Ry     beta= 0.70
     Davidson diagonalization with overlap
     ethr =  3.97E-11,  avg # of iterations =  3.8

     negative rho (up, down):  1.175E+01 0.000E+00

     total cpu time spent up to now is     8095.6 secs

     End of self-consistent calculation

          k = 0.1250 0.1083 0.0000 (330335 PWs)   bands (ev):

    -0.8187  -0.4829  -0.4770  -0.3735  -0.2669  -0.1475  -0.0898  -0.0573
    -0.0403   0.0198   0.0626   0.1471   0.2074   0.2350   0.2655   0.3410
     0.4001   0.4460   0.4616   0.5181   0.5427   0.5959   0.6020   0.7001
     0.7094   0.7364   0.8846   0.9105   0.9151   0.9197   0.9696   0.9863
     1.0150   1.0408   1.1035   1.1196   1.1344   1.1661   1.1714   1.1990
     1.2423   1.2494   1.2679   1.2859   1.2892   1.2924   1.3018   1.4023
     1.4295   1.4316   1.4382   1.4414   1.4555   1.4561   1.4590   1.4808
     1.4987   1.5081   1.5204   1.5207   1.5241   1.5361   1.5600   1.5635
     1.5778   1.6019   1.6081   1.6095   1.6123   1.6137   1.6138   1.6227
     1.6422   1.6516   1.6538   1.6653   1.6869   1.6951   1.7075   1.7236
     1.7352   1.7507   1.7582   1.7594   1.7599   1.7652   1.7714   1.7839
     1.7971   1.8126   1.8264   1.8318   1.8396   1.8425   1.8449   1.8484
     1.8496   1.8500   1.8509   1.8628   1.8638   1.8663   1.8678   1.8883
     1.9050   1.9050   1.9089   1.9121   1.9257   1.9273   1.9315   1.9408
     1.9472   1.9555   1.9557   1.9567   1.9672   1.9677   1.9800   1.9820
     1.9849   1.9914   1.9985   2.0112   2.0128   2.0158   2.0171   2.0210
     2.0263   2.0277   2.0320   2.0355   2.0411   2.0440   2.0450   2.0452
     2.0513   2.0612   2.0652   2.0678   2.0758   2.0813   2.0933   2.0975
     2.1005   2.1020   2.1185   2.1192   2.1196   2.1229   2.1229   2.1234
     2.1245   2.1250   2.1274   2.1290   2.1374   2.1406   2.1440   2.1501
     2.1506   2.1518   2.1552   2.1569   2.1584   2.1603   2.1639   2.1651
     2.1659   2.1761   2.1784   2.1820   2.1825   2.1955   2.2029   2.2040
     2.2099   2.2117   2.2127   2.2156   2.2185   2.2189   2.2189   2.2194
     2.2230   2.2263   2.2273   2.2323   2.2375   2.2410   2.2432   2.2446
     2.2476   2.2506   2.2576   2.2597   2.2610   2.2632   2.2682   2.2761
     2.2902   2.2917   2.2981   2.2988   2.2995   2.3020   2.3069   2.3077
     2.3083   2.3095   2.3104   2.3112   2.3121   2.3154   2.3198   2.3206
     2.3247   2.3253   2.3259   2.3279   2.3281   2.3332   2.3341   2.3433
     2.3463   2.3511   2.3531   2.3551   2.3595   2.3631   2.3667   2.3719
     2.3725   2.3753   2.3856   2.3862   2.3880   2.3894   2.3903   2.3922
     2.3939   2.3988   2.4021   2.4122   2.4125   2.4127   2.4155   2.4158
     2.4256   2.4262   2.4306   2.4338   2.4416   2.4431   2.4440   2.4460
     2.4466   2.4481   2.4494   2.4497   2.4518   2.4519   2.4557   2.4603
     2.4649   2.4726   2.4737   2.4749   2.4763   2.4820   2.4848   2.4849
     2.4853   2.4887   2.4910   2.4950   2.4980   2.5035   2.5097   2.5113
     2.5116   2.5121   2.5181   2.5190   2.5197   2.5229   2.5230   2.5245
     2.5339   2.5366   2.5377   2.5412   2.5438   2.5456   2.5469   2.5511
     2.5538   2.5567   2.5720   2.5756   2.5777   2.5778   2.5781   2.5811
     2.5817   2.5820   2.5845   2.5848   2.5870   2.5934   2.5945   2.5949
     2.5960   2.5965   2.6016   2.6041   2.6056   2.6113   2.6174   2.6261
     2.6262   2.6282   2.6324   2.6327   2.6353   2.6359   2.6375   2.6390
     2.6442   2.6520   2.6609   2.6640   2.6651   2.6666   2.6738   2.6751
     2.6757   2.6799   2.6814   2.6824   2.6890   2.6901   2.6913   2.6956
     2.6967   2.7009   2.7021   2.7069   2.7137   2.7148   2.7149   2.7204
     2.7226   2.7252   2.7255   2.7265   2.7269   2.7296   2.7345   2.7365
     2.7397   2.7408   2.7409   2.7439   2.7441   2.7522   2.7540   2.7584
     2.7643   2.7670   2.7692   2.7697   2.7797   2.7799   2.7818   2.7826
     2.7827   2.7831   2.7864   2.7881   2.7885   2.7888   2.7950   2.7987
     2.7997   2.8035   2.8111   2.8134   2.8147   2.8166   2.8172   2.8184
     2.8210   2.8270   2.8284   2.8373   2.8398   2.8470   2.8478   2.8504
     2.8516   2.8533   2.8535   2.8595   2.8606   2.8608   2.8608   2.8625
     2.8696   2.8750   2.8825   2.8937   2.8957   2.8968   2.8986   2.9017
     2.9020   2.9038   2.9040   2.9053   2.9088   2.9139   2.9142   2.9150
     2.9247   2.9269   2.9303   2.9311   2.9329   2.9338   2.9354   2.9357
     2.9444   2.9500   2.9629   2.9644   2.9655   2.9659   2.9682   2.9719
     2.9724   2.9763   2.9773   2.9981   3.0078   3.0096   3.0121   3.0129
     3.0160   3.0276   3.0279   3.0357   3.0375   3.0376   3.0389   3.0405
     3.0421   3.0542   3.0544   3.0619   3.0641   3.0681   3.0718   3.0796
     3.0804   3.0820   3.0849   3.0850   3.0918   3.0971   3.0974   3.0975
     3.0985   3.0989   3.1048   3.1089   3.1137   3.1176   3.1235   3.1259
     3.1266   3.1285   3.1320   3.1334   3.1406   3.1448   3.1532   3.1568
     3.1597   3.1619   3.1630   3.1732   3.1734   3.1754   3.1755   3.1755
     3.1791   3.1792   3.1826   3.1830   3.1850   3.1868   3.1892   3.1905
     3.1907   3.1933   3.1950   3.1975   3.1998   3.2002   3.2088   3.2209
     3.2233   3.2265   3.2302   3.2325   3.2356   3.2396   3.2400   3.2401
     3.2409   3.2415   3.2433   3.2520   3.2526   3.2591   3.2591   3.2595
     3.2608   3.2679   3.2684   3.2786   3.2803   3.2853   3.2882   3.2897
     3.2898   3.2898   3.2927   3.2958   3.2976   3.3002   3.3034   3.3051
     3.3075   3.3108   3.3132   3.3194   3.3197   3.3215   3.3251   3.3257
     3.3264   3.3265   3.3280   3.3281   3.3284   3.3302   3.3378   3.3385
     3.3410   3.3422   3.3438   3.3464   3.3506   3.3514   3.3524   3.3544
     3.3550   3.3553   3.3563   3.3583   3.3590   3.3633   3.3733   3.3747
     3.3778   3.3786   3.3815   3.3819   3.3856   3.3911   3.3918   3.3971
     3.3971   3.3983   3.3987   3.4031   3.4037   3.4155   3.4192   3.4211
     3.4250   3.4267   3.4280   3.4285   3.4357   3.4412   3.4416   3.4427
     3.4497   3.4497   3.4569   3.4569   3.4593   3.4594   3.4611   3.4654
     3.4664   3.4667   3.4678   3.4710   3.4728   3.4752   3.4753   3.4765
     3.4819   3.4848   3.4861   3.4862   3.4878   3.4911   3.4987   3.4996
     3.5003   3.5027   3.5042   3.5061   3.5083   3.5091   3.5112   3.5114
     3.5145   3.5157   3.5161   3.5167   3.5182   3.5204   3.5276   3.5292
     3.5314   3.5323   3.5353   3.5362   3.5460   3.5475   3.5477   3.5531
     3.5605   3.5624   3.5630   3.5683   3.5718   3.5718   3.5745   3.5766
     3.5783   3.5822   3.5876   3.5878   3.5885   3.5919   3.5930   3.5952
     3.5960   3.5979   3.5990   3.6012   3.6035   3.6050   3.6072   3.6076
     3.6081   3.6102   3.6173   3.6174   3.6215   3.6215   3.6230   3.6249
     3.6270   3.6327   3.6347   3.6357   3.6357   3.6421   3.6443   3.6481
     3.6499   3.6503   3.6507   3.6591   3.6597   3.6639   3.6664   3.6680
     3.6686   3.6726   3.6764   3.6765   3.6768   3.6809   3.6827   3.6886
     3.6894   3.6895   3.6901   3.6919   3.6955   3.6965   3.7015   3.7062
     3.7087   3.7091   3.7126   3.7167   3.7174   3.7191   3.7200   3.7239
     3.7251   3.7294   3.7308   3.7368   3.7380   3.7458   3.7528   3.7538
     3.7543   3.7563   3.7592   3.7603   3.7660   3.7691   3.7699   3.7732
     3.7777   3.7783   3.7789   3.7796   3.7809   3.7831   3.7834   3.7840
     3.7845   3.7913   3.7917   3.7949   3.8071   3.8170   3.8187   3.8197
     3.8212   3.8232   3.8249   3.8263   3.8278   3.8289   3.8334   3.8339
     3.8358   3.8404   3.8445   3.8448   3.8462   3.8465   3.8525   3.8526
     3.8529   3.8536   3.8552   3.8562   3.8569   3.8592   3.8602   3.8632
     3.8632   3.8659   3.8659   3.8665   3.8667   3.8669   3.8686   3.8691
     3.8729   3.8756   3.8786   3.8801   3.8858   3.8871   3.8871   3.8893
     3.8922   3.8936   3.8956   3.8960   3.8975   3.9021   3.9060   3.9064
     3.9078   3.9089   3.9114   3.9144   3.9146   3.9157   3.9161   3.9230
     3.9237   3.9271   3.9287   3.9289   3.9306   3.9309   3.9332   3.9332
     3.9335   3.9343   3.9368   3.9398   3.9459   3.9474   3.9475   3.9493
     3.9495   3.9541   3.9542   3.9543   3.9567   3.9615   3.9650   3.9670
     3.9692   3.9694   3.9703   3.9710   3.9723   3.9723   3.9758   3.9760
     3.9764   3.9807   3.9821   3.9827   3.9838   3.9880   3.9900   3.9906
     3.9918   3.9960   4.0014   4.0018   4.0030   4.0031   4.0060   4.0078
     4.0082   4.0082   4.0090   4.0113   4.0175   4.0189   4.0255   4.0262
     4.0275   4.0336   4.0357   4.0375   4.0375   4.0379   4.0438   4.0443
     4.0452   4.0471   4.0476   4.0489   4.0507   4.0512   4.0521   4.0524
     4.0525   4.0557   4.0589   4.0601   4.0612   4.0648   4.0664   4.0696
     4.0697   4.0711   4.0713   4.0759   4.0771   4.0781   4.0785   4.0787
     4.0789   4.0799   4.0808   4.0833   4.0847   4.0851   4.0857   4.0862
     4.0872   4.0888   4.0913   4.0928   4.0958   4.0987   4.0997   4.1013
     4.1020   4.1047   4.1069   4.1091   4.1094   4.1098   4.1107   4.1119
     4.1124   4.1125   4.1143   4.1146   4.1209   4.1247   4.1259   4.1266
     4.1273   4.1274   4.1279   4.1297   4.1319   4.1334   4.1343   4.1343
     4.1401   4.1419   4.1429   4.1441   4.1453   4.1469   4.1478   4.1483
     4.1491   4.1527   4.1529   4.1534   4.1554   4.1610   4.1624   4.1629
     4.1639   4.1645   4.1649   4.1676   4.1678   4.1684   4.1740   4.1747
     4.1752   4.1764   4.1801   4.1806   4.1812   4.1817   4.1820   4.1835
     4.1839   4.1854   4.1872   4.1898   4.1900   4.1909   4.1910   4.1925
     4.1930   4.1947   4.1966   4.1973   4.1975   4.2012   4.2021   4.2040
     4.2059   4.2070   4.2082   4.2090   4.2099   4.2103   4.2117   4.2137
     4.2153   4.2174   4.2193   4.2197   4.2214   4.2218   4.2227   4.2231
     4.2254   4.2270   4.2321   4.2334   4.2345   4.2358   4.2382   4.2433
     4.2436   4.2479   4.2509   4.2512   4.2517   4.2554   4.2566   4.2577
     4.2581   4.2582   4.2583   4.2612   4.2627   4.2638   4.2655   4.2664
     4.2672   4.2756   4.2761   4.2768   4.2775   4.2796   4.2808   4.2812
     4.2816   4.2847   4.2897   4.2907   4.2942   4.2950   4.2956   4.2963
     4.3001   4.3006   4.3014   4.3024   4.3035   4.3089   4.3099   4.3108
     4.3130   4.3141   4.3141   4.3173   4.3215   4.3243   4.3244   4.3272
     4.3274   4.3277   4.3314   4.3335   4.3414   4.3421   4.3425   4.3462
     4.3468   4.3474   4.3474   4.3498   4.3544   4.3554   4.3574   4.3576
     4.3606   4.3638   4.3648   4.3655   4.3661   4.3674   4.3685   4.3688
     4.3693   4.3704   4.3708   4.3737   4.3747   4.3749   4.3758   4.3787
     4.3793   4.3801   4.3821   4.3829   4.3838   4.3841   4.3844   4.3900
     4.3923   4.3926   4.3987   4.4032   4.4054   4.4063   4.4069   4.4084
     4.4101   4.4109   4.4141   4.4164   4.4276   4.4295   4.4319   4.4337
     4.4377   4.4397   4.4423   4.4429   4.4441   4.4491   4.4513   4.4516
     4.4526   4.4535   4.4550   4.4560   4.4563   4.4569   4.4570   4.4606
     4.4630   4.4636   4.4685   4.4697   4.4754   4.4772   4.4780   4.4789
     4.4797   4.4849   4.4889   4.4901   4.4907   4.4910   4.4927   4.4936
     4.4941   4.4980   4.4989   4.4995   4.5001   4.5014   4.5087   4.5117
     4.5127   4.5141   4.5142   4.5169   4.5178   4.5184   4.5263   4.5272
     4.5283   4.5284   4.5308   4.5314   4.5369   4.5399   4.5422   4.5452
     4.5455   4.5468   4.5505   4.5513   4.5598   4.5607   4.5615   4.5624
     4.5633   4.5651   4.5664   4.5696   4.5724   4.5728   4.5736   4.5868
     4.5878   4.5885   4.5893   4.5949   4.5992   4.5995   4.6008   4.6022
     4.6025   4.6052   4.6057   4.6069   4.6078   4.6096   4.6144   4.6160
     4.6199   4.6202   4.6216   4.6223   4.6265   4.6289   4.6347   4.6352
     4.6364   4.6364   4.6391   4.6430   4.6436   4.6442   4.6537   4.6555
     4.6566   4.6593   4.6596   4.6603   4.6607   4.6631   4.6637   4.6670
     4.6671   4.6716   4.6729   4.6731   4.6738   4.6740   4.6775   4.6801
     4.6805   4.6830   4.6836   4.6904   4.6906   4.6907   4.6921   4.6936
     4.6939   4.6988   4.6997   4.7035   4.7040   4.7069   4.7100   4.7125
     4.7126   4.7165   4.7174   4.7182   4.7196   4.7242   4.7271   4.7282
     4.7297   4.7316   4.7362   4.7375   4.7410   4.7433   4.7441   4.7511
     4.7515   4.7562   4.7576   4.7577   4.7591   4.7593   4.7593   4.7636
     4.7641   4.7652   4.7663   4.7728   4.7762   4.7790   4.7865   4.7872
     4.7917   4.7927   4.7941   4.7974   4.7985   4.8017   4.8024   4.8163
     4.8192   4.8218   4.8233   4.8240   4.8312   4.8339   4.8360   4.8360
     4.8363   4.8388   4.8455   4.8459   4.8535   4.8559   4.8573   4.8589
     4.8605   4.8606   4.8624   4.8632   4.8648   4.8655   4.8685   4.8790
     4.8794   4.8800   4.8870   4.8898   4.8914   4.8968   4.8973   4.9023
     4.9051   4.9058   4.9062   4.9067   4.9075   4.9111   4.9116   4.9118
     4.9128   4.9152   4.9160   4.9194   4.9271   4.9277   4.9288   4.9321
     4.9322   4.9362   4.9378   4.9389   4.9427   4.9434   4.9446   4.9452
     4.9467   4.9484   4.9512   4.9515   4.9517   4.9532   4.9587   4.9592
     4.9638   4.9646   4.9649   4.9665   4.9688   4.9700   4.9746   4.9797
     4.9806   4.9814   4.9875   4.9902   4.9917   5.0029   5.0044   5.0044
     5.0049   5.0051   5.0056   5.0068   5.0102   5.0103   5.0106   5.0117
     5.0119   5.0137   5.0193   5.0221   5.0244   5.0245   5.0255   5.0285
     5.0319   5.0319   5.0322   5.0326   5.0353   5.0358   5.0377   5.0455
     5.0494   5.0496   5.0497   5.0509   5.0556   5.0569   5.0572   5.0578
     5.0598   5.0602   5.0628   5.0629   5.0649   5.0664   5.0670   5.0711
     5.0716   5.0786   5.0800   5.0836   5.0866   5.0893   5.0928   5.0955
     5.1021   5.1034   5.1053   5.1061   5.1089   5.1111   5.1118   5.1119
     5.1195   5.1196   5.1234   5.1253   5.1329   5.1356   5.1370   5.1392
     5.1393   5.1397   5.1416   5.1421   5.1443   5.1504   5.1511   5.1531
     5.1568   5.1598   5.1617   5.1624   5.1649   5.1693   5.1701   5.1715
     5.1728   5.1734   5.1760   5.1769   5.1808   5.1814   5.1814   5.1819
     5.1821   5.1833   5.1866   5.1893   5.1913   5.1922   5.1981   5.1991
     5.2019   5.2022   5.2061   5.2071   5.2080   5.2105   5.2109   5.2141
     5.2149   5.2173   5.2203   5.2204   5.2245   5.2255   5.2256   5.2266
     5.2280   5.2291   5.2355   5.2373   5.2402   5.2426   5.2438   5.2457
     5.2475   5.2514   5.2523   5.2547   5.2566   5.2575   5.2615   5.2619
     5.2653   5.2660   5.2681   5.2690   5.2696   5.2711   5.2713   5.2715
     5.2723   5.2727   5.2746   5.2784   5.2820   5.2824   5.2832   5.2883
     5.2890   5.2937   5.2991   5.2996   5.3010   5.3043   5.3089   5.3089
     5.3116   5.3135   5.3142   5.3151   5.3182   5.3210   5.3212   5.3276
     5.3278   5.3281   5.3285   5.3343   5.3344   5.3349   5.3353   5.3384
     5.3390   5.3405   5.3408   5.3429   5.3431   5.3432   5.3464   5.3478
     5.3506   5.3528   5.3545   5.3572   5.3591   5.3616   5.3639   5.3659
     5.3688   5.3689   5.3691   5.3703   5.3717   5.3721   5.3736   5.3737
     5.3779   5.3786   5.3816   5.3847   5.3858   5.3862   5.3893   5.3910
     5.3927   5.3947   5.3956   5.3981   5.3987   5.3991   5.4027   5.4044
     5.4065   5.4157   5.4172   5.4232   5.4252   5.4265   5.4281   5.4291
     5.4374   5.4379   5.4381   5.4399   5.4403   5.4406   5.4413   5.4442
     5.4527   5.4550   5.4568   5.4571   5.4596   5.4624   5.4658   5.4690
     5.4692   5.4751   5.4756   5.4765   5.4788   5.4792   5.4794   5.4873
     5.4878   5.4966   5.5012   5.5022   5.5048   5.5066   5.5070   5.5074
     5.5081   5.5099   5.5123   5.5123   5.5156   5.5179   5.5182   5.5183
     5.5188   5.5196   5.5217   5.5219   5.5258   5.5266   5.5331   5.5362
     5.5368   5.5378   5.5392   5.5397   5.5398   5.5461   5.5465   5.5467
     5.5468   5.5486   5.5492   5.5495   5.5533   5.5535   5.5549   5.5550
     5.5556   5.5593   5.5597   5.5603   5.5683   5.5698   5.5707   5.5755
     5.5769   5.5802   5.5817   5.5843   5.5882   5.5909   5.5927   5.5937
     5.5944   5.5946   5.5950   5.5978   5.5982   5.5993   5.6001   5.6020
     5.6032   5.6054   5.6111   5.6141   5.6206   5.6231   5.6237   5.6286
     5.6299   5.6351   5.6403   5.6423   5.6431   5.6449   5.6451   5.6453
     5.6459   5.6506   5.6518   5.6548   5.6582   5.6598   5.6599   5.6665
     5.6716   5.6724   5.6745   5.6753   5.6764   5.6774   5.6801   5.6802
     5.6818   5.6831   5.6835   5.6849   5.6864   5.6945   5.6947   5.6976
     5.6984   5.7034   5.7068   5.7070   5.7108   5.7116   5.7138   5.7157
     5.7185   5.7223   5.7236   5.7248   5.7249   5.7256   5.7261   5.7279
     5.7280   5.7297   5.7368   5.7378   5.7378   5.7421   5.7425   5.7428
     5.7479   5.7564   5.7597   5.7616   5.7639   5.7679   5.7704   5.7709
     5.7712   5.7750   5.7773   5.7780   5.7808   5.7829   5.7884   5.7901
     5.7908   5.7922   5.7924   5.7943   5.7989   5.7990   5.7991   5.7998
     5.8064   5.8078   5.8079   5.8080   5.8161   5.8172   5.8212   5.8217
     5.8222   5.8268   5.8302   5.8341   5.8347   5.8369   5.8371   5.8384
     5.8395   5.8415   5.8422   5.8437   5.8443   5.8539   5.8570   5.8580
     5.8594   5.8594   5.8595   5.8595   5.8607   5.8622   5.8643   5.8670
     5.8685   5.8697   5.8761   5.8796   5.8855   5.8856   5.8913   5.8933
     5.8941   5.8943   5.8959   5.8992   5.9035   5.9037   5.9074   5.9112
     5.9134   5.9162   5.9163   5.9176   5.9181   5.9201   5.9203   5.9220
     5.9246   5.9249   5.9254   5.9272   5.9288   5.9292   5.9304   5.9307
     5.9314   5.9353   5.9357   5.9365   5.9421   5.9465   5.9468   5.9508
     5.9534   5.9534   5.9545   5.9551   5.9560   5.9589   5.9607   5.9663
     5.9703   5.9718   5.9740   5.9745   5.9770   5.9773   5.9788   5.9796
     5.9799   5.9799   5.9828   5.9879   5.9895   5.9898   5.9904   5.9917
     5.9982   5.9993   6.0005   6.0045   6.0090   6.0111   6.0165   6.0168
     6.0237   6.0244   6.0275   6.0292   6.0308   6.0339   6.0349   6.0364
     6.0369   6.0393   6.0396   6.0443   6.0446   6.0469   6.0492   6.0494
     6.0499   6.0503   6.0513   6.0558   6.0567   6.0568   6.0576   6.0576
     6.0587   6.0588   6.0603   6.0676   6.0689   6.0722   6.0737   6.0739
     6.0744   6.0747   6.0778   6.0780   6.0789   6.0870   6.0872   6.0880
     6.0895   6.0896   6.0900   6.0929   6.0944   6.0966   6.0973   6.0973
     6.1004   6.1008   6.1039   6.1052   6.1061   6.1068   6.1071   6.1088
     6.1100   6.1121   6.1122   6.1143   6.1165   6.1172   6.1174   6.1196
     6.1208   6.1214   6.1225   6.1327   6.1366   6.1381   6.1400   6.1409
     6.1425   6.1457   6.1459   6.1461   6.1474   6.1478   6.1478   6.1497
     6.1498   6.1520   6.1539   6.1540   6.1549   6.1571   6.1611   6.1617
     6.1617   6.1625   6.1647   6.1652   6.1670   6.1677   6.1685   6.1693
     6.1699   6.1703   6.1723   6.1724   6.1741   6.1787   6.1807   6.1811
     6.1831   6.1833   6.1847   6.1850   6.1860   6.1861   6.1877   6.1883
     6.1883   6.1894   6.1896   6.1919   6.1975   6.1987   6.1989   6.2018
     6.2022   6.2030   6.2053   6.2055   6.2062   6.2084   6.2086   6.2095
     6.2128   6.2128   6.2154   6.2168   6.2169   6.2178   6.2193   6.2201
     6.2225   6.2230   6.2232   6.2232   6.2271   6.2285   6.2293   6.2315
     6.2327   6.2328   6.2332   6.2338   6.2339   6.2348   6.2353   6.2359
     6.2375   6.2376   6.2378   6.2394   6.2399   6.2400   6.2421   6.2428
     6.2452   6.2474   6.2502   6.2507   6.2509   6.2521   6.2534   6.2542
     6.2557   6.2564   6.2599   6.2602   6.2608   6.2613   6.2628   6.2645
     6.2665   6.2673   6.2681   6.2681   6.2694   6.2716   6.2728   6.2729
     6.2738   6.2752   6.2755   6.2768   6.2793   6.2810   6.2834   6.2838
     6.2841   6.2844   6.2909   6.2920   6.2941   6.2979   6.2989   6.3030
     6.3069   6.3077   6.3105   6.3148   6.3168   6.3182   6.3192   6.3195
     6.3200   6.3213   6.3263   6.3264   6.3295   6.3301   6.3302   6.3303
     6.3308   6.3313   6.3324   6.3324   6.3358   6.3363   6.3367   6.3382
     6.3418   6.3431   6.3467   6.3470   6.3480   6.3491   6.3509   6.3510
     6.3525   6.3534   6.3564   6.3602   6.3633   6.3645   6.3647   6.3680
     6.3681   6.3709   6.3723   6.3740   6.3745   6.3751   6.3756   6.3756
     6.3776   6.3804   6.3805   6.3810   6.3844   6.3870   6.3926   6.3943
     6.3976   6.3990   6.3997   6.4001   6.4002   6.4006   6.4059   6.4062
     6.4083   6.4093   6.4100   6.4123   6.4130   6.4142   6.4255   6.4267
     6.4295   6.4316   6.4326   6.4335   6.4347   6.4356   6.4361   6.4386
     6.4420   6.4423   6.4425   6.4435   6.4480   6.4511   6.4521   6.4537
     6.4556   6.4570   6.4603   6.4605   6.4626   6.4637   6.4645   6.4646
     6.4682   6.4697   6.4703   6.4707   6.4742   6.4750   6.4788   6.4808
     6.4849   6.4861   6.4905   6.4921   6.4932   6.4961   6.5004   6.5083
     6.5109   6.5133   6.5146   6.5148   6.5155   6.5181   6.5284   6.5315
     6.5345   6.5360   6.5364   6.5369   6.5378   6.5400   6.5459   6.5462
     6.5473   6.5476   6.5486   6.5488   6.5491   6.5496   6.5503   6.5534
     6.5541   6.5594   6.5680   6.5693   6.5703   6.5735   6.5742   6.5755
     6.5764   6.5843   6.5848   6.5862   6.5870   6.5876   6.5894   6.5898
     6.5958   6.5977   6.5981   6.5987   6.5989   6.5991   6.5992   6.5994
     6.6004   6.6007   6.6029   6.6031   6.6061   6.6067   6.6084   6.6156
     6.6174   6.6205   6.6319   6.6353   6.6388   6.6397   6.6398   6.6403
     6.6446   6.6458   6.6475   6.6484   6.6552   6.6580   6.6604   6.6613
     6.6619   6.6648   6.6778   6.6853   6.7037   6.7060   6.7124   6.7165
     6.7190   6.7219   6.7246   6.7284   6.7371   6.7402   6.7574   6.7610
     6.7615   6.7745   6.7773   6.7927   6.7990   6.8159   6.8283   6.8326
     6.8333   6.8362   6.8390   6.8440   6.8502   6.8532   6.8707   6.8767
     6.8949   6.8966   6.8978   6.9043   6.9052   6.9123   6.9128   6.9179
     6.9631   6.9704   7.0210   7.0215   7.0301   7.0397   7.0405   7.0480
     7.0584   7.0695   7.0747   7.0920   7.0943   7.0961   7.1134   7.1155
     7.1169   7.1973   7.2294   7.2546   7.2801   7.2990   7.3124   7.3586
     7.3672   7.3838   7.3855   7.3885   7.4224   7.4350   7.4372   7.4388
     7.4815   7.5039   7.5067   7.5279   7.5487   7.5492   7.6077   7.6168
     7.6229   7.6359   7.6701   7.6725   7.7185   7.7259   7.7322   7.7367
     7.7384   7.7531   7.7609   7.7683   7.7883   7.7970   7.7978   7.8031
     7.8225   7.8406   7.8552   7.8674   7.8704   7.8792   7.8848   7.9037
     7.9134   7.9324   7.9964   8.0295   8.0481   8.0531   8.0562   8.0731
     8.1179   8.1458   8.1526   8.1579   8.1770   8.1802   8.1855   8.2079
     8.2131   8.2414   8.2495   8.2759   8.2797   8.3019   8.3282   8.3343
     8.3595   8.3989   8.4179   8.4182   8.4218   8.4366   8.4541   8.4644
     8.4780   8.5042   8.5190   8.5234   8.5311   8.5448   8.5565   8.5610
     8.5704   8.5798   8.5834   8.5838   8.5930   8.6102   8.6328   8.6535
     8.6923   8.7021   8.7264   8.7677   8.7839   8.7917   8.8079   8.8090
     8.8121   8.8251   8.8307   8.8400   8.8442   8.8707   8.9074   8.9172
     8.9314   8.9364   8.9368   8.9499   9.0102   9.0126   9.0200   9.0244
     9.0404   9.0538   9.0629   9.0686   9.0694   9.0953   9.1183   9.1573
     9.1889   9.2175   9.2290   9.2392   9.2475   9.2508   9.2618   9.2728
     9.2733   9.2868   9.3066   9.3073   9.3198   9.3257   9.3270   9.3281
     9.3579   9.3630   9.3838   9.3850   9.3879   9.4399   9.4414   9.4564
     9.5041   9.5469   9.5696   9.5919   9.5948   9.6040   9.6160   9.6322
     9.6417   9.6589   9.6715   9.6839   9.7044   9.7271   9.7412   9.7542
     9.7551   9.7592   9.7815   9.7887   9.7975   9.8049   9.8117   9.8209
     9.8224   9.8248   9.8282   9.8479   9.8590   9.8648   9.8791   9.8886
     9.9108   9.9635   9.9725  10.0095  10.0102  10.0140  10.0293  10.0457
    10.0514  10.0527  10.0798  10.0799  10.1037  10.1076  10.1088  10.1809
    10.1895  10.2543  10.2543  10.2713  10.3019  10.3124  10.3170  10.3537
    10.3541  10.3978  10.3988  10.4770  10.4773  10.4833  10.5073  10.5284
    10.5298  10.5328  10.5376  10.5383  10.5499  10.5691  10.6024  10.6304
    10.6317  10.6342  10.6499  10.6531  10.6532  10.6620  10.6685  10.6912
    10.7481  10.7716  10.7923  10.7973  10.8098  10.8232  10.8261  10.8420
    10.8475  10.8527  10.8568  10.8627  10.8758  10.9212  10.9561  10.9581
    10.9786  10.9798  10.9899  11.0171  11.0508  11.0567  11.0590  11.0713
    11.1163  11.1221  11.1246  11.1355  11.1407  11.1607  11.1747  11.1854
    11.1946  11.2104  11.2116  11.2168  11.2173  11.2253  11.2280  11.2306
    11.2409  11.2469  11.2641  11.2915  11.2982  11.3020  11.3051  11.3223
    11.3276  11.3310  11.3501  11.3545  11.3819  11.4051  11.4175  11.4221
    11.4236  11.4455  11.4697  11.4805  11.5087  11.5330  11.5357  11.5542
    11.5683  11.5893  11.6094  11.6422  11.6466  11.6813  11.6816  11.7125
    11.7201  11.7208  11.7224  11.7290  11.7354  11.8231  11.8266  11.8467
    11.8477  11.8545  11.8683  11.8960  11.8981  11.9136  11.9430  11.9447
    11.9762  11.9997  12.0126  12.0302  12.0430  12.0684  12.0684  12.0803
    12.1000  12.1109  12.1252  12.1394  12.1518  12.1559  12.2036  12.2338
    12.2485  12.2581  12.2613  12.2715  12.2772  12.2901  12.2926  12.3262
    12.3356  12.3380  12.3575  12.3620  12.3683  12.3703  12.3756  12.4173
    12.4434  12.4453  12.4456  12.4618  12.4623  12.5456  12.5525  12.5574
    12.5599  12.5759  12.5788  12.5901  12.5917  12.5926  12.6012  12.6126
    12.6181  12.6355  12.6356  12.6361  12.6441  12.6512  12.6553  12.6760
    12.6913  12.6936  12.7112  12.7140  12.7305  12.7318  12.7413  12.7421
    12.7589  12.7599  12.7762  12.7960  12.8177  12.8185  12.8252  12.8345
    12.8519  12.8843  12.8856  12.9016  12.9053  12.9206  12.9283  12.9669
    12.9946  13.0003  13.0086  13.0164  13.0209  13.0271  13.0297  13.0358
    13.0390  13.0452  13.0673  13.0786  13.0953  13.1172  13.1230  13.1308
    13.1433  13.1519  13.1769  13.1801  13.1804  13.2033  13.2309  13.2328
    13.2467  13.2706  13.2828  13.2852  13.2910  13.3089  13.3139  13.3304
    13.3819  13.3857  13.3901  13.4013  13.4133  13.4183  13.4277  13.4300
    13.4323  13.4655  13.4714  13.4736  13.5033  13.5061  13.5109  13.5339
    13.5496  13.5696  13.5749  13.5872  13.5915  13.6075  13.6094  13.6198
    13.6201  13.6512  13.6599  13.6737  13.6852  13.6854  13.6953  13.7059
    13.7160  13.7207  13.7289  13.7546  13.7638  13.7694  13.7710  13.7712
    13.7754  13.8004  13.8181  13.8182  13.8192  13.8243  13.8287  13.8300
    13.8324  13.8367  13.8619  13.8957  13.9030  13.9037  13.9130  13.9151
    13.9262  13.9376  13.9576  13.9728  13.9904  13.9952  13.9965  14.0048
    14.0239  14.0302  14.0308  14.0541  14.0574  14.0734  14.0852  14.1158
    14.1177  14.1195  14.1502  14.1513  14.1523  14.1565  14.1587  14.1627
    14.1630  14.1648  14.1873  14.1918  14.2047  14.2507  14.2528  14.2826
    14.2909  14.2957  14.3034  14.3118  14.3283  14.3297  14.3464  14.3717
    14.3819  14.3837  14.4025  14.4031  14.4065  14.4100  14.4229  14.4264
    14.4574  14.4592  14.4619  14.5042  14.5056  14.5121  14.5327  14.5781
    14.6057  14.6323  14.6480

          k = 0.1250 0.3248 0.0000 (330368 PWs)   bands (ev):

    -0.7618  -0.6491  -0.4210  -0.3200  -0.3103  -0.2141  -0.0396  -0.0072
     0.0116   0.0600   0.0748   0.1143   0.1830   0.2830   0.2872   0.3128
     0.3780   0.3945   0.4955   0.5923   0.5933   0.6339   0.6502   0.6779
     0.6965   0.7537   0.7566   0.7783   0.8413   0.9032   0.9189   0.9613
     1.0324   1.0616   1.0622   1.1034   1.1353   1.1548   1.1667   1.1735
     1.1945   1.2787   1.3075   1.3098   1.3198   1.3288   1.3459   1.3524
     1.3705   1.3854   1.4009   1.4196   1.4417   1.4493   1.4732   1.4889
     1.4896   1.5422   1.5443   1.5539   1.5811   1.5819   1.5851   1.5917
     1.5996   1.6065   1.6092   1.6250   1.6251   1.6295   1.6524   1.6539
     1.6562   1.6585   1.6605   1.6694   1.6755   1.6823   1.7024   1.7039
     1.7125   1.7179   1.7260   1.7402   1.7703   1.7855   1.8003   1.8059
     1.8069   1.8071   1.8178   1.8371   1.8452   1.8574   1.8600   1.8622
     1.8697   1.8723   1.8724   1.8762   1.8847   1.8885   1.8928   1.9071
     1.9087   1.9134   1.9158   1.9211   1.9293   1.9330   1.9380   1.9412
     1.9517   1.9558   1.9575   1.9591   1.9597   1.9661   1.9724   1.9821
     1.9844   1.9859   1.9871   1.9904   1.9927   2.0089   2.0156   2.0248
     2.0260   2.0263   2.0328   2.0367   2.0400   2.0458   2.0510   2.0570
     2.0598   2.0599   2.0601   2.0701   2.0723   2.0774   2.0794   2.0867
     2.0872   2.0920   2.1020   2.1171   2.1208   2.1211   2.1305   2.1361
     2.1388   2.1432   2.1447   2.1458   2.1459   2.1463   2.1464   2.1491
     2.1497   2.1546   2.1584   2.1590   2.1594   2.1623   2.1624   2.1631
     2.1641   2.1717   2.1734   2.1743   2.1860   2.1933   2.1962   2.2019
     2.2021   2.2023   2.2045   2.2099   2.2105   2.2109   2.2133   2.2148
     2.2157   2.2184   2.2228   2.2304   2.2310   2.2331   2.2367   2.2372
     2.2440   2.2446   2.2468   2.2522   2.2526   2.2539   2.2553   2.2562
     2.2581   2.2635   2.2723   2.2833   2.2850   2.2857   2.2883   2.2948
     2.2950   2.3000   2.3113   2.3155   2.3256   2.3271   2.3329   2.3347
     2.3366   2.3371   2.3400   2.3409   2.3419   2.3481   2.3487   2.3519
     2.3553   2.3604   2.3666   2.3667   2.3700   2.3715   2.3746   2.3785
     2.3798   2.3804   2.3837   2.3849   2.3856   2.3863   2.3876   2.3893
     2.3918   2.3925   2.3926   2.3951   2.3952   2.4066   2.4147   2.4243
     2.4324   2.4329   2.4387   2.4500   2.4503   2.4520   2.4526   2.4575
     2.4579   2.4591   2.4598   2.4607   2.4634   2.4653   2.4662   2.4697
     2.4701   2.4756   2.4757   2.4829   2.4892   2.4895   2.4966   2.5002
     2.5018   2.5029   2.5075   2.5080   2.5111   2.5130   2.5144   2.5165
     2.5210   2.5213   2.5224   2.5233   2.5279   2.5280   2.5294   2.5325
     2.5337   2.5411   2.5437   2.5441   2.5463   2.5505   2.5517   2.5572
     2.5602   2.5605   2.5661   2.5696   2.5720   2.5768   2.5772   2.5782
     2.5788   2.5880   2.5894   2.5925   2.5943   2.5955   2.6023   2.6074
     2.6078   2.6082   2.6084   2.6098   2.6108   2.6121   2.6122   2.6129
     2.6140   2.6168   2.6200   2.6226   2.6235   2.6350   2.6359   2.6431
     2.6465   2.6469   2.6471   2.6486   2.6498   2.6514   2.6518   2.6549
     2.6654   2.6682   2.6684   2.6754   2.6761   2.6768   2.6779   2.6792
     2.6798   2.6842   2.6847   2.6867   2.6889   2.6917   2.6926   2.6941
     2.6946   2.6951   2.7018   2.7038   2.7144   2.7156   2.7240   2.7286
     2.7315   2.7320   2.7338   2.7339   2.7343   2.7398   2.7413   2.7429
     2.7442   2.7482   2.7528   2.7582   2.7605   2.7613   2.7661   2.7765
     2.7787   2.7817   2.7889   2.7890   2.7895   2.7902   2.7919   2.7934
     2.7978   2.8032   2.8039   2.8053   2.8056   2.8152   2.8175   2.8236
[...]
     atom  202 type  1   force =    -0.00000113    0.00019621   -0.00055313
     atom  203 type  1   force =     0.00000000    0.00019601   -0.00055334
     atom  204 type  1   force =     0.00000000    0.00019592   -0.00055332
     atom  205 type  1   force =     0.00000000    0.00019598   -0.00055331
     atom  206 type  1   force =     0.00000114    0.00019624   -0.00055317
     atom  207 type  1   force =     0.00000114    0.00019614   -0.00055316
     atom  208 type  1   force =    -0.00000113    0.00019624   -0.00055317
     atom  209 type  1   force =    -0.00000113    0.00019614   -0.00055316
     atom  210 type  1   force =     0.00000000    0.00019592   -0.00055333
     atom  211 type  1   force =     0.00000000    0.00019601   -0.00055335
     atom  212 type  1   force =     0.00000000    0.00019592   -0.00055331
     atom  213 type  1   force =     0.00000000    0.00019599   -0.00055329
     atom  214 type  1   force =     0.00000074   -0.00018723    0.00042148
     atom  215 type  1   force =     0.00000113    0.00019621   -0.00055313
     atom  216 type  1   force =    -0.00000113    0.00019621   -0.00055313
     atom  217 type  1   force =     0.00000085    0.00018902   -0.00042460
     atom  218 type  1   force =    -0.00000083    0.00018902   -0.00042461
     atom  219 type  1   force =     0.00000000    0.00018846   -0.00042401
     atom  220 type  1   force =    -0.00000117   -0.00019489    0.00055145
     atom  221 type  1   force =     0.00000001   -0.00019599    0.00055044
     atom  222 type  1   force =     0.00000000   -0.00019601    0.00055043
     atom  223 type  1   force =    -0.00000001   -0.00019599    0.00055044
     atom  224 type  1   force =     0.00000084    0.00018893   -0.00042458
     atom  225 type  1   force =     0.00000083    0.00018894   -0.00042465
     atom  226 type  1   force =     0.00000083    0.00018896   -0.00042463
     atom  227 type  1   force =    -0.00000084    0.00018893   -0.00042456
     atom  228 type  1   force =    -0.00000083    0.00018892   -0.00042464
     atom  229 type  1   force =    -0.00000083    0.00018894   -0.00042463
     atom  230 type  1   force =     0.00000000    0.00018836   -0.00042400
     atom  231 type  1   force =     0.00000000    0.00018835   -0.00042403
     atom  232 type  1   force =     0.00000000    0.00018838   -0.00042402
     atom  233 type  1   force =     0.00000083    0.00018902   -0.00042461
     atom  234 type  1   force =     0.00000084    0.00018893   -0.00042456
     atom  235 type  1   force =     0.00000083    0.00018892   -0.00042464
     atom  236 type  1   force =     0.00000083    0.00018894   -0.00042463
     atom  237 type  1   force =    -0.00000085    0.00018902   -0.00042460
     atom  238 type  1   force =    -0.00000084    0.00018893   -0.00042458
     atom  239 type  1   force =    -0.00000083    0.00018894   -0.00042465
     atom  240 type  1   force =     0.00000000    0.00018843   -0.00042404
     atom  241 type  1   force =     0.00000000    0.00018835   -0.00042399
     atom  242 type  1   force =     0.00000000    0.00018836   -0.00042406
     atom  243 type  1   force =    -0.00000116   -0.00019491    0.00055145
     atom  244 type  1   force =    -0.00000116   -0.00019490    0.00055144
     atom  245 type  1   force =    -0.00000116   -0.00019493    0.00055141
     atom  246 type  1   force =     0.00000000   -0.00019600    0.00055042
     atom  247 type  1   force =     0.00000001   -0.00019603    0.00055039
     atom  248 type  1   force =     0.00000116   -0.00019489    0.00055145
     atom  249 type  1   force =     0.00000116   -0.00019490    0.00055144
     atom  250 type  1   force =     0.00000116   -0.00019490    0.00055145
     atom  251 type  1   force =     0.00000117   -0.00019491    0.00055141
     atom  252 type  1   force =    -0.00000116   -0.00019489    0.00055145
     atom  253 type  1   force =    -0.00000116   -0.00019490    0.00055144
     atom  254 type  1   force =    -0.00000116   -0.00019490    0.00055145
     atom  255 type  1   force =    -0.00000000   -0.00019601    0.00055043
     atom  256 type  1   force =    -0.00000000   -0.00019600    0.00055042
     atom  257 type  1   force =     0.00000117   -0.00019489    0.00055145
     atom  258 type  1   force =     0.00000116   -0.00019491    0.00055145
     atom  259 type  1   force =     0.00000116   -0.00019490    0.00055144
     atom  260 type  1   force =    -0.00000083    0.00018896   -0.00042463
     atom  261 type  1   force =     0.00000000    0.00018840   -0.00042405
     atom  262 type  1   force =    -0.00000117   -0.00019491    0.00055141
     atom  263 type  1   force =    -0.00000001   -0.00019603    0.00055039
     atom  264 type  1   force =     0.00000116   -0.00019493    0.00055141
     atom  265 type  1   force =     0.00000000    0.00045346    0.00051737
     atom  266 type  1   force =     0.00000000    0.00045339    0.00051728
     atom  267 type  1   force =     0.00000127    0.00045370    0.00051621
     atom  268 type  1   force =     0.00000127    0.00045363    0.00051615
     atom  269 type  1   force =    -0.00000126    0.00045371    0.00051624
     atom  270 type  1   force =     0.00000000    0.00045347    0.00051740
     atom  271 type  1   force =     0.00000126    0.00045371    0.00051624
     atom  272 type  1   force =    -0.00000031   -0.00028712    0.00074353
     atom  273 type  1   force =     0.00000001   -0.00028671    0.00074452
     atom  274 type  1   force =     0.00000032   -0.00028713    0.00074355
     atom  275 type  1   force =     0.00000000    0.00045341    0.00051729
     atom  276 type  1   force =     0.00000127    0.00045361    0.00051613
     atom  277 type  1   force =     0.00000127    0.00045366    0.00051615
     atom  278 type  1   force =    -0.00000126    0.00045362    0.00051613
     atom  279 type  1   force =    -0.00000127    0.00045365    0.00051615
     atom  280 type  1   force =     0.00000000    0.00045339    0.00051730
     atom  281 type  1   force =     0.00000000    0.00045342    0.00051732
     atom  282 type  1   force =     0.00000125    0.00045362    0.00051617
     atom  283 type  1   force =     0.00000126    0.00045362    0.00051613
     atom  284 type  1   force =     0.00000127    0.00045365    0.00051615
     atom  285 type  1   force =    -0.00000127    0.00045363    0.00051615
     atom  286 type  1   force =    -0.00000127    0.00045361    0.00051613
     atom  287 type  1   force =    -0.00000127    0.00045366    0.00051615
     atom  288 type  1   force =    -0.00000031   -0.00028718    0.00074346
     atom  289 type  1   force =    -0.00000032   -0.00028713    0.00074348
     atom  290 type  1   force =    -0.00000032   -0.00028718    0.00074351
     atom  291 type  1   force =     0.00000000   -0.00028676    0.00074443
     atom  292 type  1   force =     0.00000002   -0.00028673    0.00074447
     atom  293 type  1   force =    -0.00000000   -0.00028676    0.00074451
     atom  294 type  1   force =     0.00000031   -0.00028718    0.00074347
     atom  295 type  1   force =     0.00000032   -0.00028715    0.00074349
     atom  296 type  1   force =     0.00000032   -0.00028718    0.00074354
     atom  297 type  1   force =    -0.00000032   -0.00028713    0.00074355
     atom  298 type  1   force =    -0.00000031   -0.00028718    0.00074347
     atom  299 type  1   force =    -0.00000032   -0.00028715    0.00074349
     atom  300 type  1   force =    -0.00000032   -0.00028718    0.00074354
     atom  301 type  1   force =    -0.00000001   -0.00028671    0.00074452
     atom  302 type  1   force =    -0.00000000   -0.00028676    0.00074443
     atom  303 type  1   force =    -0.00000002   -0.00028673    0.00074447
     atom  304 type  1   force =     0.00000031   -0.00028712    0.00074353
     atom  305 type  1   force =     0.00000031   -0.00028718    0.00074346
     atom  306 type  1   force =     0.00000032   -0.00028713    0.00074348
     atom  307 type  1   force =     0.00000000    0.00045336    0.00051729
     atom  308 type  1   force =    -0.00000125    0.00045362    0.00051617
     atom  309 type  1   force =     0.00000000    0.00045340    0.00051733
     atom  310 type  1   force =    -0.00000127    0.00045370    0.00051621
     atom  311 type  1   force =     0.00000000   -0.00028676    0.00074451
     atom  312 type  1   force =     0.00000032   -0.00028718    0.00074351
     atom  313 type  1   force =     0.00000034   -0.00056296    0.00385895
     atom  314 type  1   force =     0.00000000   -0.00056331    0.00385627
     atom  315 type  1   force =    -0.00000031   -0.00056296    0.00385893
     atom  316 type  1   force =     0.00000033   -0.00056314    0.00385904
     atom  317 type  1   force =    -0.00000002   -0.00056348    0.00385632
     atom  318 type  1   force =    -0.00000034   -0.00056313    0.00385900
     atom  319 type  1   force =     0.00000104    0.00053533   -0.00456196
     atom  320 type  1   force =    -0.00000101    0.00053533   -0.00456193
     atom  321 type  1   force =     0.00000000    0.00053485   -0.00456136
     atom  322 type  1   force =     0.00000101    0.00053533   -0.00456193
     atom  323 type  1   force =    -0.00000107    0.00053526   -0.00456186
     atom  324 type  1   force =     0.00000000    0.00053476   -0.00456135
     atom  325 type  1   force =     0.00000034   -0.00056303    0.00385899
     atom  326 type  1   force =     0.00000034   -0.00056313    0.00385900
     atom  327 type  1   force =     0.00000034   -0.00056287    0.00385898
     atom  328 type  1   force =     0.00000003   -0.00056336    0.00385637
     atom  329 type  1   force =     0.00000002   -0.00056348    0.00385632
     atom  330 type  1   force =    -0.00000031   -0.00056299    0.00385906
     atom  331 type  1   force =    -0.00000033   -0.00056314    0.00385904
     atom  332 type  1   force =     0.00000031   -0.00056299    0.00385906
     atom  333 type  1   force =     0.00000031   -0.00056296    0.00385893
     atom  334 type  1   force =    -0.00000003   -0.00056336    0.00385637
     atom  335 type  1   force =    -0.00000034   -0.00056303    0.00385899
     atom  336 type  1   force =     0.00000107    0.00053526   -0.00456186
     atom  337 type  1   force =     0.00000104    0.00053532   -0.00456192
     atom  338 type  1   force =     0.00000104    0.00053537   -0.00456184
     atom  339 type  1   force =    -0.00000102    0.00053524   -0.00456183
     atom  340 type  1   force =    -0.00000103    0.00053532   -0.00456194
     atom  341 type  1   force =     0.00000000    0.00053475   -0.00456128
     atom  342 type  1   force =     0.00000000    0.00053481   -0.00456138
     atom  343 type  1   force =     0.00000102    0.00053524   -0.00456183
     atom  344 type  1   force =     0.00000103    0.00053532   -0.00456194
     atom  345 type  1   force =    -0.00000104    0.00053532   -0.00456192
     atom  346 type  1   force =     0.00000000    0.00053484   -0.00456140
     atom  347 type  1   force =     0.00000001   -0.00056322    0.00385630
     atom  348 type  1   force =    -0.00000033   -0.00056287    0.00385899
     atom  349 type  1   force =     0.00000033   -0.00056287    0.00385899
     atom  350 type  1   force =    -0.00000000   -0.00056331    0.00385627
     atom  351 type  1   force =    -0.00000001   -0.00056322    0.00385630
     atom  352 type  1   force =    -0.00000034   -0.00056296    0.00385895
     atom  353 type  1   force =    -0.00000034   -0.00056287    0.00385898
     atom  354 type  1   force =    -0.00000102    0.00053538   -0.00456182
     atom  355 type  1   force =     0.00000000    0.00053491   -0.00456129
     atom  356 type  1   force =     0.00000102    0.00053538   -0.00456182
     atom  357 type  1   force =    -0.00000104    0.00053533   -0.00456196
     atom  358 type  1   force =    -0.00000104    0.00053537   -0.00456184
     atom  359 type  1   force =     0.00000000    0.00053482   -0.00456142
     atom  360 type  1   force =     0.00000000    0.00053486   -0.00456128
     atom  361 type  1   force =    -0.00000010   -0.00336796    0.01653317
     atom  362 type  1   force =     0.00000011   -0.00336794    0.01653314
     atom  363 type  1   force =     0.00000000   -0.00336946    0.01653668
     atom  364 type  1   force =    -0.00000014   -0.00336806    0.01653340
     atom  365 type  1   force =     0.00000006   -0.00336803    0.01653330
     atom  366 type  1   force =     0.00000000   -0.00336926    0.01653667
     atom  367 type  1   force =    -0.00000048    0.00160781    0.00962862
     atom  368 type  1   force =     0.00000002    0.00160845    0.00963165
     atom  369 type  1   force =     0.00000054    0.00160759    0.00962867
     atom  370 type  1   force =    -0.00000054    0.00160759    0.00962867
     atom  371 type  1   force =    -0.00000008    0.00160848    0.00963182
     atom  372 type  1   force =     0.00000048    0.00160767    0.00962876
     atom  373 type  1   force =    -0.00000003   -0.00336792    0.01653338
     atom  374 type  1   force =    -0.00000006   -0.00336803    0.01653330
     atom  375 type  1   force =    -0.00000009   -0.00336783    0.01653334
     atom  376 type  1   force =     0.00000017   -0.00336789    0.01653351
     atom  377 type  1   force =     0.00000014   -0.00336806    0.01653340
     atom  378 type  1   force =     0.00000000   -0.00336922    0.01653687
     atom  379 type  1   force =     0.00000000   -0.00336931    0.01653644
     atom  380 type  1   force =    -0.00000017   -0.00336789    0.01653351
     atom  381 type  1   force =    -0.00000011   -0.00336794    0.01653314
     atom  382 type  1   force =     0.00000003   -0.00336792    0.01653338
     atom  383 type  1   force =     0.00000000   -0.00336939    0.01653661
     atom  384 type  1   force =    -0.00000048    0.00160767    0.00962876
     atom  385 type  1   force =    -0.00000051    0.00160757    0.00962863
     atom  386 type  1   force =    -0.00000048    0.00160771    0.00962876
     atom  387 type  1   force =     0.00000008    0.00160848    0.00963182
     atom  388 type  1   force =     0.00000001    0.00160864    0.00963164
     atom  389 type  1   force =     0.00000052    0.00160762    0.00962896
     atom  390 type  1   force =     0.00000056    0.00160779    0.00962858
     atom  391 type  1   force =    -0.00000052    0.00160762    0.00962896
     atom  392 type  1   force =    -0.00000056    0.00160779    0.00962858
     atom  393 type  1   force =    -0.00000002    0.00160845    0.00963165
     atom  394 type  1   force =     0.00000051    0.00160757    0.00962863
     atom  395 type  1   force =     0.00000009   -0.00336780    0.01653327
     atom  396 type  1   force =     0.00000000   -0.00336911    0.01653659
     atom  397 type  1   force =    -0.00000009   -0.00336780    0.01653327
     atom  398 type  1   force =     0.00000010   -0.00336796    0.01653317
     atom  399 type  1   force =     0.00000009   -0.00336783    0.01653334
     atom  400 type  1   force =     0.00000000   -0.00336928    0.01653645
     atom  401 type  1   force =     0.00000000   -0.00336918    0.01653660
     atom  402 type  1   force =     0.00000005    0.00160864    0.00963180
     atom  403 type  1   force =     0.00000054    0.00160775    0.00962883
     atom  404 type  1   force =    -0.00000054    0.00160775    0.00962883
     atom  405 type  1   force =    -0.00000001    0.00160864    0.00963164
     atom  406 type  1   force =    -0.00000005    0.00160864    0.00963180
     atom  407 type  1   force =     0.00000048    0.00160781    0.00962862
     atom  408 type  1   force =     0.00000048    0.00160771    0.00962876
     atom  409 type  1   force =    -0.00000055    0.00164855   -0.02667266
     atom  410 type  1   force =    -0.00000006    0.00164860   -0.02666626
     atom  411 type  1   force =     0.00000043    0.00164813   -0.02667242
     atom  412 type  1   force =    -0.00000043    0.00164813   -0.02667242
     atom  413 type  1   force =    -0.00000008    0.00164832   -0.02666607
     atom  414 type  1   force =     0.00000038    0.00164839   -0.02667249
     atom  415 type  1   force =    -0.00000038    0.00164839   -0.02667249
     atom  416 type  1   force =    -0.00000044    0.00164831   -0.02667253
     atom  417 type  1   force =    -0.00000038    0.00164866   -0.02667258
     atom  418 type  1   force =     0.00000020    0.00164851   -0.02666598
     atom  419 type  1   force =     0.00000008    0.00164832   -0.02666607
     atom  420 type  1   force =     0.00000059    0.00164851   -0.02667232
     atom  421 type  1   force =     0.00000043    0.00164845   -0.02667268
     atom  422 type  1   force =    -0.00000059    0.00164851   -0.02667232
     atom  423 type  1   force =    -0.00000043    0.00164845   -0.02667268
     atom  424 type  1   force =    -0.00000020    0.00164851   -0.02666598
     atom  425 type  1   force =     0.00000044    0.00164831   -0.02667253
     atom  426 type  1   force =    -0.00000044    0.00164886   -0.02667254
     atom  427 type  1   force =    -0.00000002    0.00164887   -0.02666625
     atom  428 type  1   force =     0.00000038    0.00164866   -0.02667258
     atom  429 type  1   force =     0.00000002    0.00164887   -0.02666625
     atom  430 type  1   force =     0.00000044    0.00164886   -0.02667254
     atom  431 type  1   force =     0.00000006    0.00164860   -0.02666626
     atom  432 type  1   force =     0.00000055    0.00164855   -0.02667266

     Total force =     0.233162     Total SCF correction =     0.002098
 
     init_run     :    336.60s CPU     95.98s WALL (       1 calls)
     electrons    :  29252.48s CPU   7999.24s WALL (       1 calls)
     forces       :    159.01s CPU     51.81s WALL (       1 calls)

     Called by init_run:
     wfcinit      :    327.03s CPU     90.19s WALL (       1 calls)
     potinit      :      1.68s CPU      0.47s WALL (       1 calls)
     hinit0       :      2.58s CPU      1.02s WALL (       1 calls)

     Called by electrons:
     c_bands      :  27189.53s CPU   7434.21s WALL (      29 calls)
     sum_band     :   1994.54s CPU    544.26s WALL (      29 calls)
     v_of_rho     :     20.16s CPU      5.41s WALL (      29 calls)
     newd         :     41.14s CPU     13.56s WALL (      29 calls)
     mix_rho      :      5.41s CPU      1.44s WALL (      29 calls)

     Called by c_bands:
     init_us_2    :     42.51s CPU     10.98s WALL (     120 calls)
     cegterg      :  26652.73s CPU   7049.85s WALL (      59 calls)

     Called by *egterg:
     cdiaghg      :   7203.02s CPU   1928.49s WALL (     494 calls)
     h_psi        :   8309.80s CPU   2180.61s WALL (     498 calls)
     s_psi        :   2050.50s CPU    518.69s WALL (     498 calls)
     g_psi        :     10.78s CPU      2.72s WALL (     437 calls)

     Called by h_psi:
     h_psi:calbec :   2201.69s CPU    623.43s WALL (     498 calls)
     vloc_psi     :   4037.02s CPU   1029.44s WALL (     498 calls)
     add_vuspsi   :   2049.59s CPU    518.90s WALL (     498 calls)

     General routines
     calbec       :   3288.79s CPU    935.78s WALL (     564 calls)
     fft          :     16.39s CPU      4.33s WALL (     387 calls)
     ffts         :      2.61s CPU      0.71s WALL (      58 calls)
     fftw         :   4716.43s CPU   1202.30s WALL (  903394 calls)
     interpolate  :      1.82s CPU      0.48s WALL (      29 calls)
 
     Parallel routines
     fft_scatt_xy :    355.85s CPU     89.58s WALL (  903839 calls)
     fft_scatt_yz :   3151.82s CPU    807.95s WALL (  903839 calls)
 
     PWSCF        :      8h15m CPU      2h15m WALL

 
   This run was terminated on:   5:47:35  17Sep2021            

=------------------------------------------------------------------------------=
   JOB DONE.
=------------------------------------------------------------------------------=
