
     Program PWSCF v.6.6 starts on 22Sep2021 at 21:44:16 

     This program is part of the open-source Quantum ESPRESSO suite
     for quantum simulation of materials; please cite
         "P. Giannozzi et al., J. Phys.:Condens. Matter 21 395502 (2009);
         "P. Giannozzi et al., J. Phys.:Condens. Matter 29 465901 (2017);
          URL http://www.quantum-espresso.org", 
     in publications or presentations arising from this work. More details at
     http://www.quantum-espresso.org/quote

     Parallel version (MPI & OpenMP), running on     384 processor cores
     Number of MPI processes:                48
     Threads/MPI process:                     8

     MPI processes distributed on     8 nodes
     K-points division:     npool     =       8
     R & G space division:  proc/nbgrp/npool/nimage =       6
     Fft bands division:     nmany     =       1
     Reading input from ../inputs/input_ausurf_288

     Current dimensions of program PWSCF are:
     Max number of different atomic species (ntypx) = 10
     Max number of k-points (npk) =  40000
     Max angular momentum in pseudopotentials (lmaxx) =  3

     Subspace diagonalization in iterative solution of the eigenvalue problem:
     one sub-group per band group will be used
     ELPA distributed-memory algorithm (size of sub-group:  2*  2 procs)

     Found symmetry operation: I + (  0.2500  0.0000  0.0000)
     This is a supercell, fractional translations are disabled
     Message from routine divide_et_impera:
     suboptimal parallelization: some nodes have no k-points
 
     Parallelization info
     --------------------
     sticks:   dense  smooth     PW     G-vecs:    dense   smooth      PW
     Min        3997    1825    475               950119   293693   39243
     Max        3998    1826    476               950126   293698   39250
     Sum       23985   10951   2855              5700737  1762171  235477
 

     Title: 
      Ausurf                                                                    


     bravais-lattice index     =            8
     lattice parameter (alat)  =      22.2988  a.u.
     unit-cell volume          =   51555.9485 (a.u.)^3
     number of atoms/cell      =          288
     number of atomic types    =            1
     number of electrons       =      3168.00
     number of Kohn-Sham states=         1901
     kinetic-energy cutoff     =      40.0000  Ry
     charge density cutoff     =     350.0000  Ry
     convergence threshold     =      1.0E-06
     mixing beta               =       0.7000
     number of iterations used =            8  TF        mixing
     Exchange-correlation=  SLA  PW   PBE  PBE
                           (   1   4   3   4   0   0   0)

     celldm(1)=  22.298768  celldm(2)=   1.732051  celldm(3)=   2.684575
     celldm(4)=   0.000000  celldm(5)=   0.000000  celldm(6)=   0.000000

     crystal axes: (cart. coord. in units of alat)
               a(1) = (   1.000000   0.000000   0.000000 )  
               a(2) = (   0.000000   1.732051   0.000000 )  
               a(3) = (   0.000000   0.000000   2.684575 )  

     reciprocal axes: (cart. coord. in units 2 pi/alat)
               b(1) = (  1.000000  0.000000  0.000000 )  
               b(2) = (  0.000000  0.577350  0.000000 )  
               b(3) = (  0.000000  0.000000  0.372498 )  


     PseudoPot. # 1 for Au read from file:
     /marconi/home/userexternal/czeni000/dft_src/pseudo/Au.pbe-nd-van.UPF
     MD5 check sum: deb5c07af10777505a79e28f5b4b4115
     Pseudo is Ultrasoft + core correction, Zval = 11.0
     Generated by new atomic code, or converted to UPF format
     Using radial grid of  985 points,  3 beta functions with: 
                l(1) =   1
                l(2) =   2
                l(3) =   2
     Q(r) pseudized with  8 coefficients,  rinner =    1.100   1.100   1.100
                                                       1.100   1.100

     atomic species   valence    mass     pseudopotential
        Au            11.00   196.96000     Au( 1.00)

      2 Sym. Ops. (no inversion) found



   Cartesian axes

     site n.     atom                  positions (alat units)
         1           Au  tau(   1) = (   0.0000000   0.0000000   0.0000000  )
         2           Au  tau(   2) = (   0.2500000   0.0000000   0.0000000  )
         3           Au  tau(   3) = (   0.5000000   0.0000000   0.0000000  )
         4           Au  tau(   4) = (   0.0000000   0.4330127   0.0000000  )
         5           Au  tau(   5) = (   0.7500000   0.0000000   0.0000000  )
         6           Au  tau(   6) = (   0.2500000   0.4330127   0.0000000  )
         7           Au  tau(   7) = (   0.5000000   0.4330127   0.0000000  )
         8           Au  tau(   8) = (   0.0000000   0.8660254   0.0000000  )
         9           Au  tau(   9) = (   0.7500000   0.4330127   0.0000000  )
        10           Au  tau(  10) = (   0.2500000   0.8660254   0.0000000  )
        11           Au  tau(  11) = (   0.5000000   0.8660254   0.0000000  )
        12           Au  tau(  12) = (   0.0000000   1.2990381   0.0000000  )
        13           Au  tau(  13) = (   0.7500000   0.8660254   0.0000000  )
        14           Au  tau(  14) = (   0.2500000   1.2990381   0.0000000  )
        15           Au  tau(  15) = (   0.5000000   1.2990381   0.0000000  )
        16           Au  tau(  16) = (   0.7500000   1.2990381   0.0000000  )
        17           Au  tau(  17) = (   0.1250000   0.0721688   0.2041242  )
        18           Au  tau(  18) = (   0.3750000   0.0721688   0.2041242  )
        19           Au  tau(  19) = (   0.6250000   0.0721688   0.2041242  )
        20           Au  tau(  20) = (   0.1250000   0.5051815   0.2041242  )
        21           Au  tau(  21) = (   0.6250000   0.5051815   0.2041242  )
        22           Au  tau(  22) = (   0.8750000   0.0721688   0.2041242  )
        23           Au  tau(  23) = (   0.1250000   0.9381942   0.2041242  )
        24           Au  tau(  24) = (   0.3750000   0.5051815   0.2041242  )
        25           Au  tau(  25) = (   0.3750000   0.9381942   0.2041242  )
        26           Au  tau(  26) = (   0.8750000   0.5051815   0.2041242  )
        27           Au  tau(  27) = (   0.2500000   0.2886752   0.2041242  )
        28           Au  tau(  28) = (   0.2500000   0.7216878   0.2041242  )
        29           Au  tau(  29) = (   1.0000000   0.2886752   0.2041242  )
        30           Au  tau(  30) = (   0.3750000   1.3712069   0.2041242  )
        31           Au  tau(  31) = (   0.6250000   0.9381942   0.2041242  )
        32           Au  tau(  32) = (   0.5000000   0.2886752   0.2041242  )
        33           Au  tau(  33) = (   0.7500000   0.2886752   0.2041242  )
        34           Au  tau(  34) = (   0.1250000   1.3712069   0.2041242  )
        35           Au  tau(  35) = (   0.6250000   1.3712069   0.2041242  )
        36           Au  tau(  36) = (   0.8750000   0.9381942   0.2041242  )
        37           Au  tau(  37) = (   0.8750000   1.3712069   0.2041242  )
        38           Au  tau(  38) = (   0.5000000   0.7216878   0.2041242  )
        39           Au  tau(  39) = (   0.7500000   0.7216878   0.2041242  )
        40           Au  tau(  40) = (   0.7500000   1.1547005   0.2041242  )
        41           Au  tau(  41) = (   0.2500000   1.1547005   0.2041242  )
        42           Au  tau(  42) = (   0.5000000   1.1547005   0.2041242  )
        43           Au  tau(  43) = (   1.0000000   0.7216878   0.2041242  )
        44           Au  tau(  44) = (   0.2500000   1.5877132   0.2041242  )
        45           Au  tau(  45) = (   0.5000000   1.5877132   0.2041242  )
        46           Au  tau(  46) = (   1.0000000   1.1547005   0.2041242  )
        47           Au  tau(  47) = (   0.7500000   1.5877132   0.2041242  )
        48           Au  tau(  48) = (   1.0000000   1.5877132   0.2041242  )
        49           Au  tau(  49) = (   0.2500000   0.1443375   0.4082483  )
        50           Au  tau(  50) = (   0.6250000   0.3608439   0.4082483  )
        51           Au  tau(  51) = (   0.5000000   0.1443375   0.4082483  )
        52           Au  tau(  52) = (   0.7500000   0.1443375   0.4082483  )
        53           Au  tau(  53) = (   0.1250000   0.3608439   0.4082483  )
        54           Au  tau(  54) = (   0.3750000   0.3608439   0.4082483  )
        55           Au  tau(  55) = (   0.2500000   0.5773503   0.4082483  )
        56           Au  tau(  56) = (   0.5000000   0.5773503   0.4082483  )
        57           Au  tau(  57) = (   0.5000000   1.0103630   0.4082483  )
        58           Au  tau(  58) = (   0.5000000   1.4433757   0.4082483  )
        59           Au  tau(  59) = (   0.7500000   0.5773503   0.4082483  )
        60           Au  tau(  60) = (   1.0000000   0.1443375   0.4082483  )
        61           Au  tau(  61) = (   0.1250000   0.7938566   0.4082483  )
        62           Au  tau(  62) = (   0.1250000   1.2268693   0.4082483  )
        63           Au  tau(  63) = (   0.1250000   1.6598820   0.4082483  )
        64           Au  tau(  64) = (   0.3750000   0.7938566   0.4082483  )
        65           Au  tau(  65) = (   0.3750000   1.2268693   0.4082483  )
        66           Au  tau(  66) = (   0.8750000   0.3608439   0.4082483  )
        67           Au  tau(  67) = (   0.8750000   0.7938566   0.4082483  )
        68           Au  tau(  68) = (   0.8750000   1.2268693   0.4082483  )
        69           Au  tau(  69) = (   0.8750000   1.6598820   0.4082483  )
        70           Au  tau(  70) = (   0.2500000   1.0103630   0.4082483  )
        71           Au  tau(  71) = (   0.2500000   1.4433757   0.4082483  )
        72           Au  tau(  72) = (   0.7500000   1.0103630   0.4082483  )
        73           Au  tau(  73) = (   0.7500000   1.4433757   0.4082483  )
        74           Au  tau(  74) = (   1.0000000   0.5773503   0.4082483  )
        75           Au  tau(  75) = (   1.0000000   1.0103630   0.4082483  )
        76           Au  tau(  76) = (   1.0000000   1.4433757   0.4082483  )
        77           Au  tau(  77) = (   0.3750000   1.6598820   0.4082483  )
        78           Au  tau(  78) = (   0.6250000   0.7938566   0.4082483  )
        79           Au  tau(  79) = (   0.6250000   1.2268693   0.4082483  )
        80           Au  tau(  80) = (   0.6250000   1.6598820   0.4082483  )
        81           Au  tau(  81) = (   0.6250000   0.2165064   0.6123725  )
        82           Au  tau(  82) = (   0.0000000   0.0000000   0.6123725  )
        83           Au  tau(  83) = (   0.2500000   0.0000000   0.6123725  )
        84           Au  tau(  84) = (   0.5000000   0.0000000   0.6123725  )
        85           Au  tau(  85) = (   0.1250000   0.2165064   0.6123725  )
        86           Au  tau(  86) = (   0.0000000   0.8660254   0.6123725  )
        87           Au  tau(  87) = (   0.2500000   0.4330127   0.6123725  )
        88           Au  tau(  88) = (   0.2500000   0.8660254   0.6123725  )
        89           Au  tau(  89) = (   0.5000000   0.4330127   0.6123725  )
        90           Au  tau(  90) = (   0.7500000   0.4330127   0.6123725  )
        91           Au  tau(  91) = (   0.1250000   0.6495191   0.6123725  )
        92           Au  tau(  92) = (   0.3750000   0.2165064   0.6123725  )
        93           Au  tau(  93) = (   0.3750000   0.6495191   0.6123725  )
        94           Au  tau(  94) = (   0.6250000   0.6495191   0.6123725  )
        95           Au  tau(  95) = (   0.8750000   0.2165064   0.6123725  )
        96           Au  tau(  96) = (   0.0000000   0.4330127   0.6123725  )
        97           Au  tau(  97) = (   0.2500000   1.2990381   0.6123725  )
        98           Au  tau(  98) = (   0.5000000   1.2990381   0.6123725  )
        99           Au  tau(  99) = (   0.7500000   0.0000000   0.6123725  )
       100           Au  tau( 100) = (   0.7500000   1.2990381   0.6123725  )
       101           Au  tau( 101) = (   0.1250000   1.0825318   0.6123725  )
       102           Au  tau( 102) = (   0.1250000   1.5155445   0.6123725  )
       103           Au  tau( 103) = (   0.3750000   1.0825318   0.6123725  )
       104           Au  tau( 104) = (   0.3750000   1.5155445   0.6123725  )
       105           Au  tau( 105) = (   0.6250000   1.0825318   0.6123725  )
       106           Au  tau( 106) = (   0.8750000   0.6495191   0.6123725  )
       107           Au  tau( 107) = (   0.8750000   1.0825318   0.6123725  )
       108           Au  tau( 108) = (   0.0000000   1.2990381   0.6123725  )
       109           Au  tau( 109) = (   0.5000000   0.8660254   0.6123725  )
       110           Au  tau( 110) = (   0.7500000   0.8660254   0.6123725  )
       111           Au  tau( 111) = (   0.6250000   1.5155445   0.6123725  )
       112           Au  tau( 112) = (   0.8750000   1.5155445   0.6123725  )
       113           Au  tau( 113) = (   0.1250000   0.5051815   0.8164966  )
       114           Au  tau( 114) = (   0.8750000   0.0721688   0.8164966  )
       115           Au  tau( 115) = (   0.5000000   0.2886752   0.8164966  )
       116           Au  tau( 116) = (   0.1250000   0.0721688   0.8164966  )
       117           Au  tau( 117) = (   0.3750000   0.0721688   0.8164966  )
       118           Au  tau( 118) = (   0.3750000   0.5051815   0.8164966  )
       119           Au  tau( 119) = (   0.6250000   0.0721688   0.8164966  )
       120           Au  tau( 120) = (   0.2500000   0.2886752   0.8164966  )
       121           Au  tau( 121) = (   0.2500000   0.7216878   0.8164966  )
       122           Au  tau( 122) = (   0.5000000   0.7216878   0.8164966  )
       123           Au  tau( 123) = (   0.7500000   0.2886752   0.8164966  )
       124           Au  tau( 124) = (   1.0000000   0.2886752   0.8164966  )
       125           Au  tau( 125) = (   0.1250000   0.9381942   0.8164966  )
       126           Au  tau( 126) = (   0.1250000   1.3712069   0.8164966  )
       127           Au  tau( 127) = (   0.3750000   0.9381942   0.8164966  )
       128           Au  tau( 128) = (   0.3750000   1.3712069   0.8164966  )
       129           Au  tau( 129) = (   0.6250000   0.5051815   0.8164966  )
       130           Au  tau( 130) = (   0.6250000   0.9381942   0.8164966  )
       131           Au  tau( 131) = (   0.6250000   1.3712069   0.8164966  )
       132           Au  tau( 132) = (   0.8750000   0.5051815   0.8164966  )
       133           Au  tau( 133) = (   0.8750000   0.9381942   0.8164966  )
       134           Au  tau( 134) = (   0.8750000   1.3712069   0.8164966  )
       135           Au  tau( 135) = (   0.2500000   1.1547005   0.8164966  )
       136           Au  tau( 136) = (   0.2500000   1.5877132   0.8164966  )
       137           Au  tau( 137) = (   0.5000000   1.1547005   0.8164966  )
       138           Au  tau( 138) = (   0.5000000   1.5877132   0.8164966  )
       139           Au  tau( 139) = (   0.7500000   0.7216878   0.8164966  )
       140           Au  tau( 140) = (   0.7500000   1.1547005   0.8164966  )
       141           Au  tau( 141) = (   0.7500000   1.5877132   0.8164966  )
       142           Au  tau( 142) = (   1.0000000   0.7216878   0.8164966  )
       143           Au  tau( 143) = (   1.0000000   1.1547005   0.8164966  )
       144           Au  tau( 144) = (   1.0000000   1.5877132   0.8164966  )
       145           Au  tau( 145) = (   0.2500000   0.1443375   1.0206208  )
       146           Au  tau( 146) = (   0.5000000   0.1443375   1.0206208  )
       147           Au  tau( 147) = (   0.7500000   0.1443375   1.0206208  )
       148           Au  tau( 148) = (   0.1250000   0.3608439   1.0206208  )
       149           Au  tau( 149) = (   0.3750000   0.3608439   1.0206208  )
       150           Au  tau( 150) = (   0.3750000   0.7938566   1.0206208  )
       151           Au  tau( 151) = (   0.2500000   0.5773503   1.0206208  )
       152           Au  tau( 152) = (   0.2500000   1.0103630   1.0206208  )
       153           Au  tau( 153) = (   0.2500000   1.4433757   1.0206208  )
       154           Au  tau( 154) = (   0.5000000   0.5773503   1.0206208  )
       155           Au  tau( 155) = (   0.5000000   1.0103630   1.0206208  )
       156           Au  tau( 156) = (   0.5000000   1.4433757   1.0206208  )
       157           Au  tau( 157) = (   0.7500000   0.5773503   1.0206208  )
       158           Au  tau( 158) = (   0.7500000   1.0103630   1.0206208  )
       159           Au  tau( 159) = (   0.7500000   1.4433757   1.0206208  )
       160           Au  tau( 160) = (   1.0000000   0.1443375   1.0206208  )
       161           Au  tau( 161) = (   1.0000000   0.5773503   1.0206208  )
       162           Au  tau( 162) = (   1.0000000   1.0103630   1.0206208  )
       163           Au  tau( 163) = (   1.0000000   1.4433757   1.0206208  )
       164           Au  tau( 164) = (   0.1250000   0.7938566   1.0206208  )
       165           Au  tau( 165) = (   0.1250000   1.2268693   1.0206208  )
       166           Au  tau( 166) = (   0.1250000   1.6598820   1.0206208  )
       167           Au  tau( 167) = (   0.3750000   1.2268693   1.0206208  )
       168           Au  tau( 168) = (   0.3750000   1.6598820   1.0206208  )
       169           Au  tau( 169) = (   0.6250000   0.3608439   1.0206208  )
       170           Au  tau( 170) = (   0.6250000   0.7938566   1.0206208  )
       171           Au  tau( 171) = (   0.6250000   1.2268693   1.0206208  )
       172           Au  tau( 172) = (   0.6250000   1.6598820   1.0206208  )
       173           Au  tau( 173) = (   0.8750000   0.3608439   1.0206208  )
       174           Au  tau( 174) = (   0.8750000   0.7938566   1.0206208  )
       175           Au  tau( 175) = (   0.8750000   1.2268693   1.0206208  )
       176           Au  tau( 176) = (   0.8750000   1.6598820   1.0206208  )
       177           Au  tau( 177) = (   0.0000000   0.0000000   1.2247448  )
       178           Au  tau( 178) = (   0.0000000   0.4330127   1.2247448  )
       179           Au  tau( 179) = (   0.2500000   0.0000000   1.2247448  )
       180           Au  tau( 180) = (   0.2500000   0.4330127   1.2247448  )
       181           Au  tau( 181) = (   0.5000000   0.0000000   1.2247448  )
       182           Au  tau( 182) = (   0.7500000   0.0000000   1.2247448  )
       183           Au  tau( 183) = (   0.1250000   0.2165064   1.2247448  )
       184           Au  tau( 184) = (   0.3750000   0.2165064   1.2247448  )
       185           Au  tau( 185) = (   0.6250000   0.2165064   1.2247448  )
       186           Au  tau( 186) = (   0.0000000   1.2990381   1.2247448  )
       187           Au  tau( 187) = (   0.2500000   0.8660254   1.2247448  )
       188           Au  tau( 188) = (   0.2500000   1.2990381   1.2247448  )
       189           Au  tau( 189) = (   0.5000000   0.8660254   1.2247448  )
       190           Au  tau( 190) = (   0.5000000   1.2990381   1.2247448  )
       191           Au  tau( 191) = (   0.7500000   0.8660254   1.2247448  )
       192           Au  tau( 192) = (   0.7500000   1.2990381   1.2247448  )
       193           Au  tau( 193) = (   0.1250000   0.6495191   1.2247448  )
       194           Au  tau( 194) = (   0.1250000   1.0825318   1.2247448  )
       195           Au  tau( 195) = (   0.1250000   1.5155445   1.2247448  )
       196           Au  tau( 196) = (   0.3750000   0.6495191   1.2247448  )
       197           Au  tau( 197) = (   0.3750000   1.0825318   1.2247448  )
       198           Au  tau( 198) = (   0.3750000   1.5155445   1.2247448  )
       199           Au  tau( 199) = (   0.6250000   0.6495191   1.2247448  )
       200           Au  tau( 200) = (   0.6250000   1.0825318   1.2247448  )
       201           Au  tau( 201) = (   0.6250000   1.5155445   1.2247448  )
       202           Au  tau( 202) = (   0.8750000   0.2165064   1.2247448  )
       203           Au  tau( 203) = (   0.8750000   0.6495191   1.2247448  )
       204           Au  tau( 204) = (   0.8750000   1.0825318   1.2247448  )
       205           Au  tau( 205) = (   0.8750000   1.5155445   1.2247448  )
       206           Au  tau( 206) = (   0.0000000   0.8660254   1.2247448  )
       207           Au  tau( 207) = (   0.5000000   0.4330127   1.2247448  )
       208           Au  tau( 208) = (   0.7500000   0.4330127   1.2247448  )
       209           Au  tau( 209) = (   0.1250000   0.9381942   1.4288690  )
       210           Au  tau( 210) = (   0.3750000   0.9381942   1.4288690  )
       211           Au  tau( 211) = (   0.6250000   0.9381942   1.4288690  )
       212           Au  tau( 212) = (   0.8750000   0.5051815   1.4288690  )
       213           Au  tau( 213) = (   0.2500000   1.1547005   1.4288690  )
       214           Au  tau( 214) = (   0.5000000   0.7216878   1.4288690  )
       215           Au  tau( 215) = (   0.7500000   0.7216878   1.4288690  )
       216           Au  tau( 216) = (   1.0000000   0.7216878   1.4288690  )
       217           Au  tau( 217) = (   0.1250000   0.0721688   1.4288690  )
       218           Au  tau( 218) = (   0.1250000   0.5051815   1.4288690  )
       219           Au  tau( 219) = (   0.1250000   1.3712069   1.4288690  )
       220           Au  tau( 220) = (   0.3750000   0.0721688   1.4288690  )
       221           Au  tau( 221) = (   0.3750000   0.5051815   1.4288690  )
       222           Au  tau( 222) = (   0.6250000   0.0721688   1.4288690  )
       223           Au  tau( 223) = (   0.6250000   0.5051815   1.4288690  )
       224           Au  tau( 224) = (   0.8750000   0.0721688   1.4288690  )
       225           Au  tau( 225) = (   0.8750000   0.9381942   1.4288690  )
       226           Au  tau( 226) = (   0.2500000   0.2886752   1.4288690  )
       227           Au  tau( 227) = (   0.2500000   0.7216878   1.4288690  )
       228           Au  tau( 228) = (   0.2500000   1.5877132   1.4288690  )
       229           Au  tau( 229) = (   0.5000000   0.2886752   1.4288690  )
       230           Au  tau( 230) = (   0.5000000   1.1547005   1.4288690  )
       231           Au  tau( 231) = (   0.7500000   0.2886752   1.4288690  )
       232           Au  tau( 232) = (   0.7500000   1.1547005   1.4288690  )
       233           Au  tau( 233) = (   1.0000000   0.2886752   1.4288690  )
       234           Au  tau( 234) = (   1.0000000   1.1547005   1.4288690  )
       235           Au  tau( 235) = (   0.3750000   1.3712069   1.4288690  )
       236           Au  tau( 236) = (   0.6250000   1.3712069   1.4288690  )
       237           Au  tau( 237) = (   0.8750000   1.3712069   1.4288690  )
       238           Au  tau( 238) = (   0.5000000   1.5877132   1.4288690  )
       239           Au  tau( 239) = (   0.7500000   1.5877132   1.4288690  )
       240           Au  tau( 240) = (   1.0000000   1.5877132   1.4288690  )
       241           Au  tau( 241) = (   0.2500000   1.0103630   1.6329931  )
       242           Au  tau( 242) = (   0.5000000   1.0103630   1.6329931  )
       243           Au  tau( 243) = (   0.7500000   0.5773503   1.6329931  )
       244           Au  tau( 244) = (   1.0000000   0.5773503   1.6329931  )
       245           Au  tau( 245) = (   0.1250000   1.2268693   1.6329931  )
       246           Au  tau( 246) = (   0.3750000   0.7938566   1.6329931  )
       247           Au  tau( 247) = (   0.6250000   0.7938566   1.6329931  )
       248           Au  tau( 248) = (   0.8750000   0.7938566   1.6329931  )
       249           Au  tau( 249) = (   0.2500000   0.1443375   1.6329931  )
       250           Au  tau( 250) = (   0.2500000   0.5773503   1.6329931  )
       251           Au  tau( 251) = (   0.2500000   1.4433757   1.6329931  )
       252           Au  tau( 252) = (   0.5000000   0.1443375   1.6329931  )
       253           Au  tau( 253) = (   0.5000000   0.5773503   1.6329931  )
       254           Au  tau( 254) = (   0.7500000   0.1443375   1.6329931  )
       255           Au  tau( 255) = (   0.7500000   1.0103630   1.6329931  )
       256           Au  tau( 256) = (   1.0000000   0.1443375   1.6329931  )
       257           Au  tau( 257) = (   1.0000000   1.0103630   1.6329931  )
       258           Au  tau( 258) = (   0.1250000   0.3608439   1.6329931  )
       259           Au  tau( 259) = (   0.1250000   0.7938566   1.6329931  )
       260           Au  tau( 260) = (   0.1250000   1.6598820   1.6329931  )
       261           Au  tau( 261) = (   0.3750000   0.3608439   1.6329931  )
       262           Au  tau( 262) = (   0.3750000   1.2268693   1.6329931  )
       263           Au  tau( 263) = (   0.6250000   0.3608439   1.6329931  )
       264           Au  tau( 264) = (   0.6250000   1.2268693   1.6329931  )
       265           Au  tau( 265) = (   0.8750000   0.3608439   1.6329931  )
       266           Au  tau( 266) = (   0.8750000   1.2268693   1.6329931  )
       267           Au  tau( 267) = (   0.5000000   1.4433757   1.6329931  )
       268           Au  tau( 268) = (   0.7500000   1.4433757   1.6329931  )
       269           Au  tau( 269) = (   1.0000000   1.4433757   1.6329931  )
       270           Au  tau( 270) = (   0.3750000   1.6598820   1.6329931  )
       271           Au  tau( 271) = (   0.6250000   1.6598820   1.6329931  )
       272           Au  tau( 272) = (   0.8750000   1.6598820   1.6329931  )
       273           Au  tau( 273) = (   0.1250000   1.0825318   1.8371173  )
       274           Au  tau( 274) = (   0.3750000   1.0825318   1.8371173  )
       275           Au  tau( 275) = (   0.6250000   0.6495191   1.8371173  )
       276           Au  tau( 276) = (   0.8750000   0.6495191   1.8371173  )
       277           Au  tau( 277) = (   0.1250000   0.2165064   1.8371173  )
       278           Au  tau( 278) = (   0.1250000   0.6495191   1.8371173  )
       279           Au  tau( 279) = (   0.1250000   1.5155445   1.8371173  )
       280           Au  tau( 280) = (   0.3750000   0.2165064   1.8371173  )
       281           Au  tau( 281) = (   0.3750000   0.6495191   1.8371173  )
       282           Au  tau( 282) = (   0.6250000   0.2165064   1.8371173  )
       283           Au  tau( 283) = (   0.6250000   1.0825318   1.8371173  )
       284           Au  tau( 284) = (   0.8750000   0.2165064   1.8371173  )
       285           Au  tau( 285) = (   0.8750000   1.0825318   1.8371173  )
       286           Au  tau( 286) = (   0.8750000   1.5155445   1.8371173  )
       287           Au  tau( 287) = (   0.3750000   1.5155445   1.8371173  )
       288           Au  tau( 288) = (   0.6250000   1.5155445   1.8371173  )

     number of k points=     6  Marzari-Vanderbilt smearing, width (Ry)=  0.0500
                       cart. coord. in units 2pi/alat
        k(    1) = (   0.0833333   0.0962250   0.0000000), wk =   0.4444444
        k(    2) = (   0.0833333  -0.2886751   0.0000000), wk =   0.2222222
        k(    3) = (   0.2500000   0.0962250   0.0000000), wk =   0.4444444
        k(    4) = (   0.2500000  -0.2886751   0.0000000), wk =   0.2222222
        k(    5) = (   0.4166667   0.0962250   0.0000000), wk =   0.4444444
        k(    6) = (   0.4166667  -0.2886751   0.0000000), wk =   0.2222222

     Dense  grid:  5700737 G-vectors     FFT dimensions: ( 135, 240, 360)

     Smooth grid:  1762171 G-vectors     FFT dimensions: (  90, 160, 243)

     Estimated max dynamical RAM per process >      10.11 GB

     Estimated total dynamical RAM >     485.09 GB

     Initial potential from superposition of free atoms

     starting charge 3164.65577, renormalised to 3168.00000

     negative rho (up, down):  7.682E+00 0.000E+00
     Starting wfcs are 2592 randomized atomic wfcs

     total cpu time spent up to now is       64.0 secs

     Self-consistent Calculation

     iteration #  1     ecut=    40.00 Ry     beta= 0.70
     Davidson diagonalization with overlap
     ethr =  1.00E-02,  avg # of iterations =  3.0

     Threshold (ethr) on eigenvalues was too large:
     Diagonalizing with lowered threshold

     Davidson diagonalization with overlap
     ethr =  3.34E-04,  avg # of iterations =  4.2

     negative rho (up, down):  7.304E+00 0.000E+00

     total cpu time spent up to now is      369.1 secs

     total energy              =  -29385.07924765 Ry
     estimated scf accuracy    <      12.62257759 Ry

     iteration #  2     ecut=    40.00 Ry     beta= 0.70
     Davidson diagonalization with overlap
     ethr =  3.98E-04,  avg # of iterations =  1.5

     negative rho (up, down):  7.713E+00 0.000E+00

     total cpu time spent up to now is      492.3 secs

     total energy              =  -29385.64930135 Ry
     estimated scf accuracy    <       5.62926684 Ry

     iteration #  3     ecut=    40.00 Ry     beta= 0.70
     Davidson diagonalization with overlap
     ethr =  1.78E-04,  avg # of iterations =  3.0

     negative rho (up, down):  8.106E+00 0.000E+00

     total cpu time spent up to now is      631.0 secs

     total energy              =  -29385.61544345 Ry
     estimated scf accuracy    <       3.29549593 Ry

     iteration #  4     ecut=    40.00 Ry     beta= 0.70
     Davidson diagonalization with overlap
     ethr =  1.04E-04,  avg # of iterations = 12.0

     negative rho (up, down):  8.097E+00 0.000E+00

     total cpu time spent up to now is      805.8 secs

     total energy              =  -29385.56236991 Ry
     estimated scf accuracy    <       1.61771200 Ry

     iteration #  5     ecut=    40.00 Ry     beta= 0.70
     Davidson diagonalization with overlap
     ethr =  5.11E-05,  avg # of iterations = 16.8

     negative rho (up, down):  7.902E+00 0.000E+00

     total cpu time spent up to now is      994.2 secs

     total energy              =  -29385.54004277 Ry
     estimated scf accuracy    <       0.98843773 Ry

     iteration #  6     ecut=    40.00 Ry     beta= 0.70
     Davidson diagonalization with overlap
     ethr =  3.12E-05,  avg # of iterations = 11.5

     negative rho (up, down):  7.915E+00 0.000E+00

     total cpu time spent up to now is     1172.4 secs

     total energy              =  -29385.51138761 Ry
     estimated scf accuracy    <       0.94226655 Ry

     iteration #  7     ecut=    40.00 Ry     beta= 0.70
     Davidson diagonalization with overlap
     ethr =  2.97E-05,  avg # of iterations =  7.8

     negative rho (up, down):  7.941E+00 0.000E+00

     total cpu time spent up to now is     1336.6 secs

     total energy              =  -29385.48506455 Ry
     estimated scf accuracy    <       0.96332929 Ry

     iteration #  8     ecut=    40.00 Ry     beta= 0.70
     Davidson diagonalization with overlap
     ethr =  2.97E-05,  avg # of iterations =  3.8

     negative rho (up, down):  8.122E+00 0.000E+00

     total cpu time spent up to now is     1488.2 secs

     total energy              =  -29385.39866070 Ry
     estimated scf accuracy    <       0.73872839 Ry

     iteration #  9     ecut=    40.00 Ry     beta= 0.70
     Davidson diagonalization with overlap
     ethr =  2.33E-05,  avg # of iterations = 13.0

     negative rho (up, down):  8.060E+00 0.000E+00

     total cpu time spent up to now is     1719.5 secs

     total energy              =  -29385.50207233 Ry
     estimated scf accuracy    <       1.25319086 Ry

     iteration # 10     ecut=    40.00 Ry     beta= 0.70
     Davidson diagonalization with overlap
     ethr =  2.33E-05,  avg # of iterations =  1.3

     negative rho (up, down):  8.110E+00 0.000E+00

     total cpu time spent up to now is     1841.3 secs

     total energy              =  -29385.45356946 Ry
     estimated scf accuracy    <       0.71268794 Ry

     iteration # 11     ecut=    40.00 Ry     beta= 0.70
     Davidson diagonalization with overlap
     ethr =  2.25E-05,  avg # of iterations =  1.0

     negative rho (up, down):  8.147E+00 0.000E+00

     total cpu time spent up to now is     1949.0 secs

     total energy              =  -29385.51238094 Ry
     estimated scf accuracy    <       0.33163108 Ry

     iteration # 12     ecut=    40.00 Ry     beta= 0.70
     Davidson diagonalization with overlap
     ethr =  1.05E-05,  avg # of iterations =  2.0

     negative rho (up, down):  8.303E+00 0.000E+00

     total cpu time spent up to now is     2076.6 secs

     total energy              =  -29385.41549698 Ry
     estimated scf accuracy    <       0.93368139 Ry

     iteration # 13     ecut=    40.00 Ry     beta= 0.70
     Davidson diagonalization with overlap
     ethr =  1.05E-05,  avg # of iterations = 13.3

     negative rho (up, down):  8.127E+00 0.000E+00

     total cpu time spent up to now is     2255.0 secs

     total energy              =  -29385.39448414 Ry
     estimated scf accuracy    <       0.11802652 Ry

     iteration # 14     ecut=    40.00 Ry     beta= 0.70
     Davidson diagonalization with overlap
     ethr =  3.73E-06,  avg # of iterations = 12.7

     negative rho (up, down):  8.066E+00 0.000E+00

     total cpu time spent up to now is     2637.1 secs

     total energy              =  -29385.44988756 Ry
     estimated scf accuracy    <       0.23728130 Ry

     iteration # 15     ecut=    40.00 Ry     beta= 0.70
     Davidson diagonalization with overlap
     ethr =  3.73E-06,  avg # of iterations =  2.0

     negative rho (up, down):  8.003E+00 0.000E+00

     total cpu time spent up to now is     2763.6 secs

     total energy              =  -29385.41360870 Ry
     estimated scf accuracy    <       0.18913019 Ry

     iteration # 16     ecut=    40.00 Ry     beta= 0.70
     Davidson diagonalization with overlap
     ethr =  3.73E-06,  avg # of iterations =  9.0

     negative rho (up, down):  7.915E+00 0.000E+00

     total cpu time spent up to now is     2957.4 secs

     total energy              =  -29385.42670033 Ry
     estimated scf accuracy    <       0.00226860 Ry

     iteration # 17     ecut=    40.00 Ry     beta= 0.70
     Davidson diagonalization with overlap
     ethr =  7.16E-08,  avg # of iterations =  8.7

     negative rho (up, down):  7.844E+00 0.000E+00

     total cpu time spent up to now is     3133.8 secs

     total energy              =  -29385.42555716 Ry
     estimated scf accuracy    <       0.00352742 Ry

     iteration # 18     ecut=    40.00 Ry     beta= 0.70
     Davidson diagonalization with overlap
     ethr =  7.16E-08,  avg # of iterations = 14.7

     negative rho (up, down):  7.836E+00 0.000E+00

     total cpu time spent up to now is     3333.5 secs

     total energy              =  -29385.42648842 Ry
     estimated scf accuracy    <       0.00117024 Ry

     iteration # 19     ecut=    40.00 Ry     beta= 0.70
     Davidson diagonalization with overlap
     ethr =  3.69E-08,  avg # of iterations = 12.0

     negative rho (up, down):  7.835E+00 0.000E+00

     total cpu time spent up to now is     3526.6 secs

     total energy              =  -29385.42662955 Ry
     estimated scf accuracy    <       0.00076621 Ry

     iteration # 20     ecut=    40.00 Ry     beta= 0.70
     Davidson diagonalization with overlap
     ethr =  2.42E-08,  avg # of iterations =  4.5

     negative rho (up, down):  7.835E+00 0.000E+00

     total cpu time spent up to now is     3681.5 secs

     total energy              =  -29385.42675825 Ry
     estimated scf accuracy    <       0.00082988 Ry

     iteration # 21     ecut=    40.00 Ry     beta= 0.70
     Davidson diagonalization with overlap
     ethr =  2.42E-08,  avg # of iterations =  2.0

     negative rho (up, down):  7.835E+00 0.000E+00

     total cpu time spent up to now is     3805.2 secs

     total energy              =  -29385.42678432 Ry
     estimated scf accuracy    <       0.00004997 Ry

     iteration # 22     ecut=    40.00 Ry     beta= 0.70
     Davidson diagonalization with overlap
     ethr =  1.58E-09,  avg # of iterations =  3.0

     negative rho (up, down):  7.835E+00 0.000E+00

     total cpu time spent up to now is     3942.8 secs

     total energy              =  -29385.42679191 Ry
     estimated scf accuracy    <       0.00000167 Ry

     iteration # 23     ecut=    40.00 Ry     beta= 0.70
     Davidson diagonalization with overlap
     ethr =  5.27E-11,  avg # of iterations =  4.8

     negative rho (up, down):  7.835E+00 0.000E+00

     total cpu time spent up to now is     4135.4 secs

     total energy              =  -29385.42679257 Ry
     estimated scf accuracy    <       0.00000143 Ry

     iteration # 24     ecut=    40.00 Ry     beta= 0.70
     Davidson diagonalization with overlap
     ethr =  4.52E-11,  avg # of iterations =  2.2

     negative rho (up, down):  7.835E+00 0.000E+00

     total cpu time spent up to now is     4260.5 secs

     End of self-consistent calculation

          k = 0.0833 0.0962 0.0000 (220303 PWs)   bands (ev):

    -0.8130  -0.5139  -0.4713  -0.2262  -0.1778   0.0255   0.1020   0.2537
     0.3117   0.4900   0.5491   0.5640   0.5802   0.6015   0.6350   0.7195
     0.7833   0.8244   0.8362   0.8821   0.9223   0.9650   0.9951   1.0079
     1.0167   1.0909   1.1251   1.1388   1.2051   1.2160   1.2463   1.2569
     1.3387   1.3568   1.3854   1.4019   1.4434   1.4637   1.5057   1.5099
     1.5527   1.5573   1.5649   1.5683   1.5733   1.5834   1.5911   1.6036
     1.6143   1.6195   1.6432   1.6938   1.7091   1.7228   1.7260   1.7270
     1.7516   1.7547   1.7934   1.8040   1.8168   1.8291   1.8300   1.8327
     1.8476   1.8506   1.8521   1.8546   1.8556   1.8571   1.8641   1.8683
     1.8813   1.8949   1.9103   1.9218   1.9393   1.9455   1.9476   1.9649
     1.9731   1.9991   1.9998   2.0095   2.0104   2.0133   2.0285   2.0302
     2.0336   2.0406   2.0427   2.0560   2.0658   2.0742   2.0845   2.0883
     2.1220   2.1227   2.1254   2.1272   2.1291   2.1441   2.1466   2.1516
     2.1520   2.1578   2.1616   2.1636   2.1664   2.1688   2.1715   2.1764
     2.1962   2.2125   2.2258   2.2293   2.2303   2.2340   2.2343   2.2382
     2.2417   2.2442   2.2477   2.2734   2.2775   2.2806   2.2886   2.2906
     2.3019   2.3027   2.3046   2.3080   2.3086   2.3100   2.3147   2.3180
     2.3229   2.3254   2.3295   2.3337   2.3382   2.3405   2.3439   2.3449
     2.3495   2.3503   2.3580   2.3701   2.3765   2.3808   2.3811   2.3825
     2.3833   2.3916   2.3991   2.4064   2.4081   2.4115   2.4118   2.4122
     2.4166   2.4231   2.4263   2.4265   2.4282   2.4302   2.4365   2.4396
     2.4407   2.4494   2.4502   2.4515   2.4523   2.4563   2.4603   2.4686
     2.4744   2.4759   2.4766   2.4837   2.4838   2.4857   2.4887   2.4953
     2.5109   2.5135   2.5151   2.5245   2.5358   2.5376   2.5380   2.5430
     2.5463   2.5534   2.5556   2.5580   2.5647   2.5681   2.5687   2.5742
     2.5757   2.5801   2.5802   2.5812   2.5880   2.5905   2.5933   2.5945
     2.5982   2.5986   2.5986   2.6022   2.6140   2.6143   2.6170   2.6208
     2.6234   2.6352   2.6415   2.6541   2.6549   2.6591   2.6614   2.6637
     2.6672   2.6688   2.6700   2.6731   2.6805   2.6847   2.6933   2.6942
     2.6980   2.7013   2.7149   2.7166   2.7198   2.7199   2.7237   2.7267
     2.7341   2.7430   2.7451   2.7476   2.7591   2.7601   2.7689   2.7718
     2.7725   2.7757   2.7781   2.7810   2.7855   2.7907   2.7938   2.8061
     2.8066   2.8068   2.8071   2.8124   2.8125   2.8147   2.8193   2.8247
     2.8344   2.8371   2.8490   2.8509   2.8554   2.8555   2.8573   2.8595
     2.8600   2.8609   2.8755   2.8759   2.8986   2.9118   2.9196   2.9209
     2.9229   2.9295   2.9326   2.9373   2.9404   2.9479   2.9504   2.9565
     2.9568   2.9613   2.9794   2.9842   2.9975   3.0086   3.0112   3.0220
     3.0238   3.0439   3.0562   3.0565   3.0593   3.0676   3.0691   3.0695
     3.0727   3.0804   3.0815   3.0828   3.0835   3.0851   3.0934   3.1109
     3.1160   3.1171   3.1200   3.1222   3.1307   3.1332   3.1379   3.1401
     3.1428   3.1430   3.1480   3.1630   3.1674   3.1696   3.1761   3.1802
     3.1811   3.1909   3.1947   3.1965   3.1989   3.1993   3.2022   3.2088
     3.2089   3.2124   3.2140   3.2233   3.2249   3.2283   3.2319   3.2336
     3.2372   3.2453   3.2615   3.2629   3.2674   3.2744   3.2794   3.2817
     3.2842   3.2911   3.2926   3.2935   3.3002   3.3128   3.3166   3.3218
     3.3245   3.3246   3.3253   3.3263   3.3277   3.3292   3.3319   3.3334
     3.3366   3.3440   3.3475   3.3506   3.3540   3.3552   3.3607   3.3607
     3.3695   3.3732   3.3733   3.3758   3.3759   3.3779   3.3792   3.3818
     3.4049   3.4061   3.4067   3.4096   3.4138   3.4166   3.4214   3.4219
     3.4277   3.4347   3.4388   3.4390   3.4423   3.4478   3.4484   3.4496
     3.4593   3.4632   3.4634   3.4643   3.4732   3.4748   3.4757   3.4759
     3.4789   3.4825   3.4860   3.4871   3.4962   3.4974   3.5023   3.5063
     3.5090   3.5121   3.5150   3.5151   3.5187   3.5267   3.5320   3.5334
     3.5360   3.5382   3.5390   3.5437   3.5480   3.5538   3.5580   3.5629
     3.5670   3.5689   3.5709   3.5763   3.5765   3.5801   3.5856   3.5868
     3.5908   3.5920   3.5935   3.5972   3.5983   3.6017   3.6018   3.6019
     3.6076   3.6089   3.6211   3.6211   3.6244   3.6247   3.6252   3.6260
     3.6264   3.6298   3.6326   3.6448   3.6469   3.6480   3.6482   3.6595
     3.6620   3.6791   3.6847   3.6907   3.6924   3.6934   3.6962   3.6978
     3.7044   3.7092   3.7116   3.7151   3.7190   3.7201   3.7209   3.7305
     3.7320   3.7327   3.7344   3.7349   3.7437   3.7459   3.7494   3.7504
     3.7593   3.7594   3.7620   3.7656   3.7714   3.7732   3.7743   3.7760
     3.7770   3.7789   3.7853   3.7863   3.7877   3.7904   3.7920   3.7941
     3.8014   3.8050   3.8107   3.8139   3.8189   3.8252   3.8266   3.8281
     3.8358   3.8434   3.8467   3.8493   3.8525   3.8556   3.8557   3.8572
     3.8650   3.8678   3.8682   3.8697   3.8698   3.8736   3.8738   3.8751
     3.8766   3.8935   3.8953   3.9003   3.9021   3.9044   3.9073   3.9165
     3.9193   3.9197   3.9206   3.9226   3.9234   3.9245   3.9261   3.9308
     3.9328   3.9342   3.9346   3.9389   3.9409   3.9488   3.9495   3.9530
     3.9550   3.9553   3.9610   3.9636   3.9648   3.9677   3.9710   3.9758
     3.9784   3.9800   3.9802   3.9835   3.9865   3.9877   3.9917   3.9924
     3.9941   4.0057   4.0057   4.0118   4.0126   4.0154   4.0163   4.0193
     4.0218   4.0262   4.0266   4.0284   4.0391   4.0392   4.0418   4.0425
     4.0522   4.0534   4.0579   4.0645   4.0682   4.0686   4.0697   4.0709
     4.0732   4.0733   4.0764   4.0789   4.0801   4.0857   4.0868   4.0913
     4.0954   4.0969   4.0979   4.0986   4.0992   4.1022   4.1049   4.1080
     4.1097   4.1102   4.1141   4.1142   4.1178   4.1198   4.1203   4.1297
     4.1298   4.1318   4.1337   4.1352   4.1394   4.1399   4.1412   4.1422
     4.1425   4.1500   4.1548   4.1570   4.1587   4.1624   4.1625   4.1639
     4.1645   4.1650   4.1655   4.1657   4.1665   4.1674   4.1695   4.1711
     4.1744   4.1754   4.1755   4.1783   4.1786   4.1812   4.1831   4.1832
     4.1871   4.1889   4.1906   4.1907   4.1935   4.1941   4.1971   4.1988
     4.1995   4.1998   4.2004   4.2008   4.2021   4.2039   4.2051   4.2058
     4.2067   4.2101   4.2141   4.2152   4.2183   4.2185   4.2187   4.2272
     4.2309   4.2317   4.2319   4.2358   4.2368   4.2373   4.2378   4.2388
     4.2442   4.2502   4.2543   4.2549   4.2559   4.2566   4.2579   4.2612
     4.2654   4.2678   4.2700   4.2740   4.2745   4.2780   4.2784   4.2827
     4.2886   4.2941   4.2961   4.2968   4.3003   4.3005   4.3058   4.3061
     4.3146   4.3147   4.3153   4.3185   4.3219   4.3224   4.3224   4.3280
     4.3330   4.3384   4.3394   4.3446   4.3481   4.3505   4.3537   4.3560
     4.3567   4.3579   4.3595   4.3626   4.3673   4.3688   4.3691   4.3696
     4.3704   4.3709   4.3719   4.3790   4.3807   4.3816   4.3828   4.3838
     4.3894   4.3928   4.3938   4.3944   4.3996   4.3996   4.4014   4.4066
     4.4255   4.4266   4.4266   4.4295   4.4297   4.4314   4.4335   4.4344
     4.4421   4.4513   4.4514   4.4526   4.4625   4.4630   4.4661   4.4667
     4.4687   4.4712   4.4782   4.4842   4.4855   4.4907   4.4911   4.4917
     4.4934   4.4956   4.4992   4.5050   4.5084   4.5098   4.5128   4.5189
     4.5198   4.5224   4.5250   4.5282   4.5336   4.5343   4.5356   4.5361
     4.5363   4.5382   4.5407   4.5484   4.5500   4.5560   4.5661   4.5688
     4.5744   4.5770   4.5788   4.5790   4.5864   4.5909   4.5973   4.6061
     4.6079   4.6219   4.6326   4.6326   4.6362   4.6397   4.6450   4.6476
     4.6522   4.6592   4.6621   4.6632   4.6668   4.6804   4.6844   4.6859
     4.6874   4.6917   4.6918   4.6927   4.6975   4.6991   4.6992   4.7037
     4.7086   4.7145   4.7184   4.7189   4.7212   4.7252   4.7256   4.7307
     4.7374   4.7446   4.7457   4.7467   4.7490   4.7515   4.7607   4.7646
     4.7650   4.7728   4.7789   4.7853   4.7974   4.8014   4.8059   4.8103
     4.8113   4.8137   4.8151   4.8177   4.8235   4.8242   4.8255   4.8261
     4.8275   4.8282   4.8289   4.8301   4.8404   4.8423   4.8497   4.8508
     4.8586   4.8596   4.8718   4.8721   4.8723   4.8738   4.8787   4.8799
     4.8810   4.8821   4.8859   4.8884   4.8919   4.8946   4.8962   4.8991
     4.9011   4.9029   4.9066   4.9094   4.9100   4.9107   4.9185   4.9252
     4.9275   4.9299   4.9354   4.9413   4.9464   4.9534   4.9564   4.9586
     4.9597   4.9620   4.9648   4.9712   4.9724   4.9731   4.9752   4.9810
     4.9812   4.9819   4.9836   4.9914   4.9914   4.9931   4.9989   4.9991
     5.0022   5.0066   5.0118   5.0147   5.0167   5.0192   5.0228   5.0249
     5.0294   5.0300   5.0307   5.0341   5.0342   5.0353   5.0374   5.0377
     5.0424   5.0465   5.0565   5.0587   5.0606   5.0607   5.0632   5.0697
     5.0733   5.0784   5.0822   5.0846   5.0866   5.0882   5.0948   5.1087
     5.1095   5.1116   5.1212   5.1225   5.1243   5.1281   5.1293   5.1336
     5.1352   5.1354   5.1384   5.1419   5.1487   5.1513   5.1514   5.1519
     5.1540   5.1553   5.1604   5.1611   5.1618   5.1733   5.1804   5.1817
     5.1854   5.1902   5.1907   5.1909   5.1931   5.1999   5.2012   5.2013
     5.2044   5.2071   5.2159   5.2161   5.2221   5.2236   5.2245   5.2250
     5.2286   5.2293   5.2311   5.2317   5.2317   5.2321   5.2363   5.2383
     5.2386   5.2391   5.2392   5.2410   5.2425   5.2463   5.2497   5.2504
     5.2586   5.2592   5.2607   5.2615   5.2622   5.2645   5.2650   5.2663
     5.2689   5.2703   5.2741   5.2754   5.2769   5.2829   5.2834   5.2855
     5.2859   5.2873   5.2887   5.2963   5.2972   5.2995   5.3121   5.3164
     5.3190   5.3199   5.3220   5.3266   5.3270   5.3273   5.3312   5.3322
     5.3344   5.3372   5.3403   5.3445   5.3447   5.3473   5.3512   5.3522
     5.3538   5.3544   5.3557   5.3643   5.3672   5.3731   5.3753   5.3761
     5.3762   5.3768   5.3790   5.3812   5.3878   5.3898   5.3952   5.3952
     5.3989   5.4029   5.4035   5.4066   5.4066   5.4093   5.4131   5.4141
     5.4168   5.4192   5.4199   5.4241   5.4281   5.4316   5.4318   5.4343
     5.4462   5.4509   5.4527   5.4535   5.4564   5.4578   5.4593   5.4608
     5.4729   5.4743   5.4746   5.4785   5.4793   5.4869   5.4888   5.4896
     5.4951   5.4962   5.5089   5.5109   5.5164   5.5165   5.5186   5.5323
     5.5334   5.5351   5.5361   5.5372   5.5400   5.5426   5.5430   5.5455
     5.5470   5.5473   5.5511   5.5550   5.5555   5.5559   5.5644   5.5680
     5.5726   5.5768   5.5768   5.5772   5.5778   5.5822   5.5939   5.5991
     5.6005   5.6046   5.6062   5.6076   5.6110   5.6203   5.6220   5.6226
     5.6276   5.6321   5.6407   5.6414   5.6454   5.6455   5.6472   5.6480
     5.6572   5.6585   5.6595   5.6607   5.6680   5.6747   5.6751   5.6764
     5.6786   5.6788   5.6858   5.6967   5.6971   5.6972   5.6999   5.6999
     5.7080   5.7094   5.7107   5.7124   5.7250   5.7290   5.7299   5.7303
     5.7308   5.7312   5.7334   5.7431   5.7475   5.7482   5.7484   5.7495
     5.7567   5.7610   5.7623   5.7628   5.7668   5.7693   5.7698   5.7724
     5.7767   5.7779   5.7907   5.7982   5.8002   5.8052   5.8072   5.8080
     5.8106   5.8117   5.8215   5.8243   5.8289   5.8307   5.8330   5.8341
     5.8374   5.8439   5.8487   5.8538   5.8542   5.8549   5.8570   5.8574
     5.8583   5.8601   5.8601   5.8653   5.8655   5.8670   5.8765   5.8825
     5.8891   5.8930   5.8965   5.8975   5.9006   5.9023   5.9035   5.9060
     5.9108   5.9108   5.9168   5.9255   5.9398   5.9407   5.9429   5.9467
     5.9472   5.9490   5.9495   5.9576   5.9581   5.9588   5.9593   5.9600
     5.9635   5.9688   5.9689   5.9770   5.9776   5.9780   5.9808   5.9826
     5.9909   5.9955   5.9956   5.9965   5.9990   6.0095   6.0112   6.0131
     6.0132   6.0141   6.0278   6.0283   6.0361   6.0441   6.0478   6.0517
     6.0530   6.0531   6.0538   6.0565   6.0573   6.0660   6.0670   6.0706
     6.0719   6.0726   6.0732   6.0735   6.0736   6.0743   6.0766   6.0774
     6.0860   6.0891   6.0907   6.0912   6.0948   6.0974   6.0978   6.1010
     6.1010   6.1075   6.1079   6.1086   6.1087   6.1172   6.1181   6.1223
     6.1232   6.1245   6.1293   6.1302   6.1339   6.1395   6.1404   6.1427
     6.1429   6.1451   6.1505   6.1520   6.1530   6.1548   6.1578   6.1624
     6.1655   6.1659   6.1677   6.1686   6.1699   6.1753   6.1763   6.1784
     6.1796   6.1820   6.1842   6.1861   6.1929   6.1961   6.1962   6.1997
     6.2014   6.2058   6.2070   6.2094   6.2139   6.2139   6.2143   6.2190
     6.2200   6.2209   6.2213   6.2260   6.2260   6.2315   6.2334   6.2339
     6.2347   6.2350   6.2355   6.2390   6.2468   6.2486   6.2530   6.2579
     6.2597   6.2598   6.2636   6.2648   6.2657   6.2671   6.2674   6.2731
     6.2743   6.2767   6.2791   6.2827   6.2828   6.2839   6.2913   6.2932
     6.2939   6.2945   6.2977   6.3037   6.3072   6.3139   6.3173   6.3192
     6.3229   6.3279   6.3286   6.3310   6.3339   6.3362   6.3363   6.3374
     6.3454   6.3460   6.3460   6.3460   6.3474   6.3476   6.3497   6.3589
     6.3608   6.3622   6.3648   6.3650   6.3701   6.3716   6.3745   6.3752
     6.3762   6.3763   6.3774   6.3777   6.3778   6.3788   6.3797   6.3833
     6.3850   6.3865   6.3880   6.3904   6.3923   6.3926   6.3943   6.3958
     6.3963   6.3980   6.3989   6.4045   6.4056   6.4092   6.4093   6.4164
     6.4186   6.4244   6.4252   6.4286   6.4318   6.4324   6.4347   6.4347
     6.4386   6.4425   6.4454   6.4485   6.4497   6.4517   6.4527   6.4563
     6.4634   6.4651   6.4678   6.4700   6.4743   6.4780   6.4781   6.4784
     6.4865   6.4869   6.5016   6.5118   6.5126   6.5162   6.5175   6.5195
     6.5290   6.5346   6.5364   6.5460   6.5466   6.5467   6.5473   6.5482
     6.5484   6.5486   6.5508   6.5609   6.5646   6.5652   6.5714   6.5754
     6.5810   6.5847   6.5851   6.5859   6.5877   6.5883   6.5900   6.5920
     6.5925   6.5940   6.5960   6.5992   6.5992   6.5997   6.6012   6.6021
     6.6043   6.6049   6.6060   6.6086   6.6334   6.6347   6.6371   6.6373
     6.6384   6.6526   6.6627   6.6690   6.6705   6.6818   6.6918   6.6969
     6.6971   6.6975   6.7171   6.7172   6.7195   6.7251   6.7251   6.7286
     6.7399   6.7464   6.7568   6.7608   6.7856   6.7993   6.8159   6.8259
     6.8275   6.8339   6.8532   6.8684   6.8764   6.8954   6.8966   6.8974
     6.9058   6.9065   6.9117   6.9127   6.9131   6.9341   6.9558   6.9980
     7.0627   7.0630   7.0667   7.0799   7.1346   7.1469   7.2576   7.2656
     7.3381   7.3798   7.4071   7.4968   7.5254   7.5267   7.5292   7.5833
     7.6143   7.6221   7.6393   7.6698   7.6862   7.6912   7.7173   7.7395
     7.7969   7.7988   7.8002   7.8061   7.8154   7.8494   7.8509   7.8521
     7.8662   7.8703   7.8920   8.0011   8.0289   8.0376   8.0477   8.0545
     8.0608   8.0663   8.0795   8.1133   8.1462   8.1925   8.1973   8.2136
     8.2409   8.2648   8.2770   8.2980   8.3293   8.3495   8.3596   8.3614
     8.4062   8.4064   8.4153   8.4200   8.4215   8.4240   8.4534   8.4654
     8.5150   8.5163   8.5507   8.5855   8.5960   8.6486   8.6487   8.6701
     8.6836   8.7137   8.7455   8.7753   8.7832   8.7882   8.7921   8.8061
     8.8540   8.9185   8.9272   8.9281   8.9468   8.9508   8.9665   8.9784
     9.0092   9.0220   9.0403   9.0560   9.0637   9.1042   9.1286   9.1464
     9.1965   9.2262   9.2313   9.2505   9.2564   9.2728   9.2777   9.2891
     9.2969   9.2985   9.3120   9.3147   9.3531   9.3898   9.4610   9.4964
     9.5702   9.5762   9.5885   9.6441   9.6612   9.6861   9.6973   9.7014
     9.7175   9.7304   9.7558   9.7599   9.7804   9.7877   9.8241   9.8307
     9.8605   9.8688   9.8718   9.8790   9.9042   9.9109   9.9361   9.9776
     9.9943   9.9979  10.0040  10.0743  10.0745  10.0902  10.2000  10.2071
    10.2244  10.2501  10.2529  10.2644  10.2982  10.3143  10.3643  10.3937
    10.4599  10.4662  10.5294  10.5446  10.5521  10.5645  10.5919  10.6436
    10.6511  10.6742  10.6809  10.7059  10.7284  10.7564  10.7872  10.7896
    10.8570  10.8657  10.8917  10.9349  10.9389  10.9821  10.9854  11.0332
    11.0498  11.0638  11.0767  11.0861  11.1310  11.1350  11.1450  11.1945
    11.2182  11.2268  11.2293  11.2359  11.2425  11.2591  11.2645  11.2742
    11.2823  11.2965  11.3282  11.3377  11.3420  11.3825  11.3897  11.4437
    11.4511  11.4669  11.4824  11.5488  11.5722  11.6063  11.6597  11.6621
    11.6656  11.7218  11.7284  11.7566  11.7792  11.8063  11.8213  11.8309
    11.8565  11.8826  11.8985  11.9043  11.9313  11.9531  11.9858  12.0008
    12.0116  12.0481  12.0590  12.0633  12.0968  12.1035  12.1128  12.1262
    12.2162  12.2255  12.2558  12.2787  12.3036  12.3152  12.3201  12.3381
    12.3472  12.3562  12.3721  12.3803  12.4097  12.4490  12.4558  12.5247
    12.5406  12.5512  12.5924  12.6020  12.6092  12.6161  12.6200  12.6221
    12.6452  12.6535  12.7048  12.7300  12.7414  12.7436  12.7651  12.7790
    12.7935  12.8227  12.8467  12.8497  12.8735  12.8749  12.8884  12.8937
    12.9050  12.9368  13.0227  13.0227  13.0525  13.0740  13.0814  13.0937
    13.0962  13.1006  13.1581  13.1680  13.1797  13.2070  13.2154  13.2281
    13.2448  13.2496  13.2602  13.2840  13.2843  13.2956  13.3197  13.3235
    13.3388  13.3792  13.3836  13.4406  13.4464  13.4631  13.4633  13.4640
    13.4689  13.4698  13.4720  13.4917  13.5045  13.5236  13.5279  13.5780
    13.6556  13.6623  13.6762  13.6828  13.6884  13.7255  13.7603  13.7661
    13.8104  13.8206  13.8227  13.8265  13.8360  13.8436  13.8831  13.8872
    13.8909  13.8962  13.9146  13.9335  13.9338  13.9393  13.9526  13.9583
    13.9614  13.9952  13.9995  14.0038  14.0079  14.0301  14.0495  14.0700
    14.0905  14.1016  14.1118  14.1287  14.1450  14.1647  14.1707  14.1717
    14.2010  14.2054  14.2312  14.2435  14.2721  14.2789  14.2824  14.3251
    14.3395  14.3739  14.3743  14.4027  14.4039  14.4104  14.4233  14.4234
    14.4294  14.5062  14.5483  14.5571  14.5575

          k = 0.0833-0.2887 0.0000 (220268 PWs)   bands (ev):

    -0.7121  -0.7121  -0.3721  -0.3721   0.1226   0.1226   0.1366   0.1366
     0.3332   0.3332   0.4500   0.4500   0.6379   0.6379   0.6973   0.6973
     0.6987   0.6987   0.9045   0.9045   0.9787   0.9787   1.0131   1.0131
     1.0803   1.0803   1.2202   1.2202   1.2411   1.2411   1.2639   1.2639
     1.3072   1.3072   1.3800   1.3800   1.4288   1.4288   1.4719   1.4719
     1.5338   1.5338   1.5449   1.5449   1.6002   1.6002   1.6053   1.6053
     1.6100   1.6100   1.6497   1.6497   1.6505   1.6505   1.6609   1.6609
     1.6966   1.6966   1.7607   1.7607   1.7919   1.7919   1.8465   1.8465
     1.8612   1.8612   1.8865   1.8865   1.8972   1.8972   1.9034   1.9034
     1.9192   1.9192   1.9250   1.9250   1.9443   1.9443   1.9944   1.9944
     2.0365   2.0365   2.0411   2.0411   2.0573   2.0573   2.0650   2.0650
     2.0786   2.0786   2.0842   2.0842   2.0853   2.0853   2.0992   2.0992
     2.1139   2.1139   2.1520   2.1520   2.1678   2.1678   2.1709   2.1709
     2.1737   2.1737   2.1754   2.1754   2.1759   2.1759   2.1996   2.1996
     2.2057   2.2057   2.2132   2.2132   2.2504   2.2504   2.2536   2.2536
     2.2539   2.2539   2.2572   2.2572   2.2715   2.2715   2.2722   2.2722
     2.2769   2.2769   2.2863   2.2863   2.2876   2.2876   2.2884   2.2884
     2.2973   2.2973   2.3061   2.3061   2.3122   2.3122   2.3236   2.3236
     2.3272   2.3272   2.3384   2.3384   2.3590   2.3590   2.3593   2.3593
     2.3611   2.3611   2.3625   2.3625   2.3683   2.3683   2.4027   2.4027
     2.4144   2.4144   2.4228   2.4228   2.4253   2.4253   2.4335   2.4335
     2.4503   2.4503   2.4613   2.4613   2.4685   2.4685   2.4714   2.4714
     2.4807   2.4807   2.4861   2.4861   2.4946   2.4946   2.4996   2.4996
     2.4997   2.4997   2.5020   2.5020   2.5088   2.5088   2.5180   2.5180
     2.5195   2.5195   2.5439   2.5439   2.5455   2.5455   2.5548   2.5548
     2.5682   2.5682   2.5732   2.5732   2.5878   2.5878   2.5948   2.5948
     2.5973   2.5973   2.6219   2.6220   2.6429   2.6429   2.6489   2.6489
     2.6593   2.6593   2.6746   2.6746   2.6771   2.6771   2.6810   2.6810
     2.6926   2.6926   2.6944   2.6944   2.6954   2.6954   2.7018   2.7018
     2.7021   2.7021   2.7049   2.7049   2.7113   2.7113   2.7227   2.7227
     2.7231   2.7231   2.7432   2.7433   2.7599   2.7599   2.7747   2.7747
     2.7761   2.7761   2.7801   2.7801   2.7973   2.7973   2.8035   2.8035
     2.8073   2.8073   2.8114   2.8114   2.8195   2.8195   2.8325   2.8325
     2.8377   2.8377   2.8537   2.8537   2.8595   2.8595   2.8696   2.8696
     2.8704   2.8704   2.8873   2.8873   2.8925   2.8925   2.9247   2.9247
     2.9299   2.9299   2.9322   2.9322   2.9382   2.9382   2.9462   2.9462
     2.9789   2.9789   2.9961   2.9961   3.0051   3.0051   3.0105   3.0105
     3.0142   3.0142   3.0356   3.0356   3.0410   3.0410   3.0691   3.0691
     3.0795   3.0795   3.0823   3.0823   3.0827   3.0827   3.0844   3.0844
     3.0889   3.0889   3.1043   3.1043   3.1258   3.1258   3.1303   3.1303
     3.1369   3.1369   3.1416   3.1416   3.1603   3.1603   3.1627   3.1627
     3.1782   3.1782   3.1825   3.1825   3.2006   3.2006   3.2245   3.2245
     3.2320   3.2320   3.2376   3.2376   3.2393   3.2393   3.2421   3.2421
     3.2488   3.2488   3.2676   3.2676   3.2683   3.2683   3.2740   3.2740
     3.2741   3.2741   3.2746   3.2746   3.2915   3.2915   3.3072   3.3072
     3.3116   3.3116   3.3143   3.3143   3.3282   3.3282   3.3343   3.3343
     3.3391   3.3391   3.3402   3.3402   3.3499   3.3499   3.3540   3.3540
     3.3603   3.3603   3.3673   3.3673   3.3744   3.3744   3.3839   3.3839
     3.3845   3.3845   3.4096   3.4096   3.4119   3.4119   3.4218   3.4218
     3.4237   3.4237   3.4348   3.4348   3.4395   3.4395   3.4519   3.4519
     3.4607   3.4607   3.4617   3.4617   3.4699   3.4699   3.4764   3.4764
     3.4792   3.4792   3.4837   3.4837   3.4959   3.4959   3.5018   3.5018
     3.5087   3.5087   3.5156   3.5156   3.5242   3.5242   3.5315   3.5315
     3.5335   3.5335   3.5473   3.5473   3.5494   3.5494   3.5511   3.5511
     3.5556   3.5556   3.5560   3.5560   3.5684   3.5684   3.5843   3.5843
     3.5877   3.5877   3.5886   3.5886   3.6151   3.6151   3.6159   3.6159
     3.6199   3.6199   3.6221   3.6221   3.6230   3.6230   3.6273   3.6273
     3.6412   3.6412   3.6486   3.6486   3.6611   3.6611   3.6750   3.6750
     3.6779   3.6779   3.6854   3.6854   3.6859   3.6859   3.6914   3.6914
     3.6998   3.6998   3.7020   3.7020   3.7078   3.7078   3.7081   3.7081
     3.7385   3.7385   3.7496   3.7496   3.7511   3.7511   3.7626   3.7626
     3.7649   3.7649   3.7670   3.7670   3.7707   3.7707   3.7707   3.7707
     3.7794   3.7794   3.7863   3.7863   3.7915   3.7915   3.8157   3.8157
     3.8159   3.8159   3.8362   3.8362   3.8387   3.8387   3.8465   3.8465
     3.8506   3.8506   3.8536   3.8536   3.8623   3.8623   3.8647   3.8647
     3.8701   3.8701   3.8763   3.8763   3.8922   3.8922   3.8974   3.8974
     3.9038   3.9038   3.9096   3.9096   3.9112   3.9112   3.9126   3.9126
     3.9149   3.9149   3.9279   3.9279   3.9386   3.9386   3.9443   3.9443
     3.9443   3.9443   3.9451   3.9451   3.9452   3.9452   3.9480   3.9480
     3.9551   3.9551   3.9590   3.9590   3.9654   3.9654   3.9763   3.9763
     3.9776   3.9776   3.9821   3.9821   3.9937   3.9937   3.9947   3.9947
     3.9988   3.9988   4.0006   4.0006   4.0082   4.0082   4.0219   4.0219
     4.0219   4.0219   4.0248   4.0248   4.0252   4.0252   4.0266   4.0266
     4.0548   4.0548   4.0561   4.0561   4.0630   4.0630   4.0670   4.0670
     4.0722   4.0722   4.0728   4.0728   4.0736   4.0736   4.0745   4.0745
     4.0819   4.0819   4.0849   4.0849   4.1083   4.1083   4.1114   4.1114
     4.1157   4.1157   4.1158   4.1158   4.1222   4.1222   4.1351   4.1351
     4.1397   4.1397   4.1401   4.1401   4.1455   4.1455   4.1463   4.1463
     4.1463   4.1463   4.1478   4.1478   4.1517   4.1517   4.1608   4.1608
     4.1688   4.1688   4.1738   4.1738   4.1762   4.1762   4.1779   4.1779
     4.1812   4.1812   4.1853   4.1853   4.1873   4.1873   4.1914   4.1914
     4.1945   4.1945   4.1974   4.1974   4.1981   4.1981   4.2031   4.2031
     4.2063   4.2063   4.2131   4.2131   4.2165   4.2165   4.2187   4.2187
     4.2220   4.2220   4.2229   4.2229   4.2237   4.2237   4.2261   4.2261
     4.2261   4.2261   4.2289   4.2289   4.2318   4.2318   4.2327   4.2327
     4.2457   4.2457   4.2463   4.2463   4.2669   4.2669   4.2687   4.2687
     4.2716   4.2716   4.2764   4.2764   4.2776   4.2776   4.2827   4.2827
     4.2880   4.2880   4.2984   4.2984   4.2987   4.2987   4.3034   4.3034
     4.3079   4.3079   4.3106   4.3106   4.3178   4.3178   4.3229   4.3229
     4.3271   4.3271   4.3304   4.3304   4.3445   4.3445   4.3491   4.3491
     4.3507   4.3507   4.3605   4.3605   4.3689   4.3689   4.3700   4.3700
     4.3783   4.3783   4.3805   4.3805   4.3805   4.3805   4.3887   4.3887
     4.3986   4.3986   4.4044   4.4044   4.4190   4.4190   4.4232   4.4232
     4.4239   4.4239   4.4321   4.4321   4.4332   4.4332   4.4538   4.4538
     4.4576   4.4576   4.4610   4.4610   4.4624   4.4624   4.4642   4.4642
     4.4659   4.4659   4.4719   4.4719   4.4882   4.4882   4.4932   4.4932
     4.4934   4.4934   4.4946   4.4946   4.5053   4.5053   4.5212   4.5212
     4.5234   4.5234   4.5335   4.5335   4.5395   4.5395   4.5488   4.5488
     4.5569   4.5569   4.5756   4.5756   4.5778   4.5778   4.5802   4.5802
     4.5838   4.5838   4.5905   4.5905   4.5985   4.5985   4.5986   4.5986
     4.6014   4.6014   4.6126   4.6126   4.6137   4.6137   4.6308   4.6308
     4.6408   4.6408   4.6535   4.6535   4.6546   4.6546   4.6600   4.6600
     4.6646   4.6646   4.6705   4.6705   4.6770   4.6770   4.6839   4.6839
     4.6893   4.6893   4.6985   4.6985   4.7063   4.7063   4.7063   4.7063
     4.7097   4.7097   4.7170   4.7170   4.7194   4.7194   4.7418   4.7418
     4.7478   4.7478   4.7590   4.7590   4.7698   4.7698   4.7758   4.7758
     4.7951   4.7951   4.8046   4.8046   4.8209   4.8209   4.8264   4.8264
     4.8297   4.8297   4.8332   4.8332   4.8451   4.8451   4.8508   4.8508
     4.8595   4.8595   4.8597   4.8597   4.8664   4.8664   4.8665   4.8665
     4.8749   4.8749   4.8758   4.8758   4.8960   4.8960   4.8995   4.8995
     4.9086   4.9086   4.9185   4.9185   4.9257   4.9257   4.9266   4.9266
     4.9276   4.9276   4.9464   4.9464   4.9468   4.9468   4.9486   4.9486
     4.9633   4.9633   4.9656   4.9656   4.9664   4.9664   4.9751   4.9751
     4.9819   4.9819   4.9850   4.9850   4.9865   4.9865   4.9893   4.9893
     4.9925   4.9925   4.9994   4.9994   5.0062   5.0062   5.0080   5.0080
     5.0121   5.0121   5.0273   5.0273   5.0292   5.0292   5.0355   5.0355
     5.0420   5.0420   5.0479   5.0479   5.0520   5.0520   5.0659   5.0659
     5.0720   5.0720   5.0840   5.0840   5.0935   5.0935   5.0984   5.0984
     5.0993   5.0993   5.1151   5.1151   5.1158   5.1158   5.1167   5.1167
     5.1296   5.1296   5.1303   5.1303   5.1356   5.1356   5.1464   5.1464
     5.1482   5.1482   5.1489   5.1489   5.1583   5.1583   5.1719   5.1719
     5.1827   5.1827   5.1943   5.1943   5.1953   5.1953   5.2017   5.2017
     5.2024   5.2024   5.2107   5.2107   5.2201   5.2201   5.2237   5.2237
     5.2266   5.2266   5.2341   5.2341   5.2385   5.2385   5.2419   5.2419
     5.2458   5.2458   5.2517   5.2517   5.2524   5.2524   5.2545   5.2545
     5.2573   5.2573   5.2610   5.2610   5.2795   5.2795   5.2835   5.2835
     5.2913   5.2913   5.3125   5.3125   5.3205   5.3205   5.3213   5.3213
     5.3244   5.3244   5.3284   5.3284   5.3304   5.3304   5.3402   5.3402
     5.3461   5.3461   5.3469   5.3469   5.3470   5.3470   5.3554   5.3554
     5.3597   5.3597   5.3615   5.3615   5.3710   5.3710   5.3783   5.3783
     5.3872   5.3872   5.3930   5.3930   5.3969   5.3969   5.4085   5.4085
     5.4100   5.4100   5.4124   5.4124   5.4193   5.4193   5.4259   5.4259
     5.4271   5.4271   5.4288   5.4288   5.4290   5.4290   5.4372   5.4372
     5.4377   5.4377   5.4491   5.4491   5.4493   5.4493   5.4542   5.4542
     5.4707   5.4707   5.4773   5.4773   5.4806   5.4806   5.4823   5.4823
     5.4942   5.4942   5.4959   5.4959   5.4978   5.4978   5.5079   5.5079
     5.5094   5.5094   5.5098   5.5098   5.5211   5.5211   5.5267   5.5267
     5.5357   5.5357   5.5380   5.5380   5.5459   5.5459   5.5502   5.5502
     5.5524   5.5524   5.5536   5.5536   5.5747   5.5747   5.5794   5.5794
     5.5815   5.5815   5.5848   5.5848   5.5887   5.5887   5.5931   5.5931
     5.5984   5.5984   5.6044   5.6044   5.6072   5.6072   5.6083   5.6083
     5.6130   5.6130   5.6220   5.6220   5.6321   5.6321   5.6326   5.6326
     5.6370   5.6370   5.6381   5.6381   5.6434   5.6434   5.6511   5.6511
     5.6653   5.6653   5.6678   5.6678   5.6711   5.6711   5.6744   5.6744
     5.6914   5.6914   5.6939   5.6939   5.6945   5.6945   5.7056   5.7056
     5.7143   5.7143   5.7217   5.7217   5.7284   5.7284   5.7294   5.7294
     5.7358   5.7358   5.7452   5.7452   5.7457   5.7457   5.7676   5.7676
     5.7684   5.7684   5.7724   5.7724   5.7738   5.7738   5.7740   5.7740
     5.7858   5.7858   5.7900   5.7900   5.7915   5.7915   5.7971   5.7971
     5.7997   5.7997   5.8193   5.8193   5.8219   5.8219   5.8346   5.8346
     5.8360   5.8360   5.8589   5.8589   5.8641   5.8641   5.8690   5.8690
     5.8719   5.8719   5.8780   5.8780   5.8976   5.8976   5.9035   5.9035
     5.9071   5.9071   5.9140   5.9140   5.9142   5.9142   5.9257   5.9257
     5.9281   5.9281   5.9433   5.9433   5.9439   5.9439   5.9466   5.9466
     5.9479   5.9479   5.9481   5.9481   5.9558   5.9558   5.9722   5.9722
     5.9751   5.9751   5.9824   5.9824   5.9825   5.9825   5.9825   5.9825
     5.9843   5.9843   6.0105   6.0105   6.0167   6.0167   6.0199   6.0199
     6.0236   6.0236   6.0248   6.0248   6.0279   6.0279   6.0298   6.0298
     6.0328   6.0328   6.0378   6.0378   6.0596   6.0596   6.0715   6.0715
     6.0923   6.0923   6.1042   6.1042   6.1084   6.1084   6.1094   6.1094
     6.1133   6.1133   6.1183   6.1183   6.1241   6.1241   6.1254   6.1254
     6.1272   6.1272   6.1349   6.1349   6.1456   6.1456   6.1467   6.1467
     6.1505   6.1505   6.1564   6.1564   6.1594   6.1594   6.1601   6.1601
     6.1624   6.1624   6.1742   6.1742   6.1768   6.1768   6.1904   6.1904
     6.1938   6.1938   6.2051   6.2051   6.2052   6.2052   6.2052   6.2052
     6.2082   6.2082   6.2113   6.2113   6.2146   6.2146   6.2163   6.2163
     6.2238   6.2238   6.2278   6.2278   6.2345   6.2345   6.2362   6.2362
     6.2503   6.2503   6.2539   6.2539   6.2564   6.2564   6.2600   6.2600
     6.2716   6.2716   6.2750   6.2750   6.2756   6.2756   6.2757   6.2757
     6.2817   6.2817   6.2832   6.2832   6.2865   6.2865   6.2938   6.2938
     6.2970   6.2970   6.2972   6.2972   6.3005   6.3005   6.3010   6.3010
     6.3144   6.3144   6.3144   6.3144   6.3195   6.3195   6.3211   6.3211
     6.3224   6.3224   6.3272   6.3272   6.3343   6.3343   6.3426   6.3426
     6.3544   6.3544   6.3572   6.3572   6.3622   6.3622   6.3648   6.3648
     6.3663   6.3663   6.3761   6.3761   6.3790   6.3790   6.3839   6.3839
     6.3892   6.3892   6.3895   6.3895   6.3907   6.3907   6.3931   6.3931
     6.3947   6.3947   6.4003   6.4003   6.4003   6.4003   6.4265   6.4265
     6.4355   6.4355   6.4471   6.4471   6.4493   6.4493   6.4537   6.4537
     6.4540   6.4540   6.4583   6.4583   6.4601   6.4601   6.4615   6.4615
     6.4641   6.4641   6.4654   6.4654   6.4810   6.4810   6.4874   6.4874
     6.4892   6.4892   6.4933   6.4933   6.4984   6.4984   6.5050   6.5050
     6.5169   6.5169   6.5402   6.5402   6.5418   6.5418   6.5432   6.5432
     6.5434   6.5434   6.5493   6.5493   6.5641   6.5641   6.5646   6.5646
     6.5678   6.5678   6.5872   6.5872   6.5888   6.5888   6.5975   6.5975
     6.5995   6.5995   6.5996   6.5996   6.6025   6.6025   6.6026   6.6026
     6.6071   6.6071   6.6192   6.6192   6.6268   6.6268   6.6273   6.6273
     6.6300   6.6300   6.6427   6.6427   6.7176   6.7176   6.7187   6.7187
     6.7256   6.7256   6.7426   6.7426   6.7448   6.7448   6.7965   6.7965
     6.8302   6.8302   6.8480   6.8480   6.8543   6.8543   6.8749   6.8749
     6.8776   6.8776   6.9110   6.9110   6.9111   6.9111   6.9661   6.9661
     6.9992   6.9992   7.0641   7.0641   7.0847   7.0847   7.1195   7.1195
     7.1489   7.1489   7.2420   7.2420   7.3240   7.3240   7.3245   7.3245
     7.3415   7.3415   7.4302   7.4302   7.4630   7.4630   7.4847   7.4847
     7.5135   7.5135   7.5677   7.5677   7.5805   7.5805   7.6162   7.6162
     7.6595   7.6595   7.7312   7.7312   7.7838   7.7838   7.7876   7.7876
     7.7930   7.7930   7.8221   7.8221   7.9866   7.9866   8.0153   8.0153
     8.0369   8.0369   8.0831   8.0831   8.1141   8.1141   8.2065   8.2065
     8.2148   8.2148   8.2357   8.2357   8.2562   8.2562   8.2942   8.2942
     8.2999   8.2999   8.4393   8.4393   8.4530   8.4530   8.4792   8.4792
     8.5082   8.5082   8.5500   8.5500   8.6562   8.6562   8.6805   8.6805
     8.7582   8.7582   8.7940   8.7940   8.7954   8.7954   8.8002   8.8002
     8.9362   8.9362   8.9603   8.9603   9.0338   9.0338   9.0369   9.0369
     9.0778   9.0778   9.0922   9.0922   9.1198   9.1198   9.1200   9.1200
     9.1525   9.1525   9.1737   9.1737   9.2183   9.2183   9.2661   9.2661
     9.2794   9.2794   9.4278   9.4278   9.4350   9.4350   9.4445   9.4445
     9.4481   9.4481   9.4830   9.4830   9.6589   9.6589   9.7076   9.7076
     9.7082   9.7082   9.7105   9.7105   9.7678   9.7678   9.7773   9.7773
     9.8411   9.8411   9.9048   9.9048   9.9557   9.9557   9.9826   9.9826
    10.0122  10.0122  10.0862  10.0862  10.1379  10.1379  10.1754  10.1754
    10.2303  10.2303  10.3585  10.3585  10.4073  10.4073  10.4494  10.4494
    10.4915  10.4915  10.5418  10.5418  10.6181  10.6181  10.6335  10.6335
    10.6517  10.6517  10.6523  10.6523  10.6636  10.6636  10.7170  10.7170
    10.9128  10.9128  10.9775  10.9775  11.0145  11.0145  11.0275  11.0275
    11.1102  11.1102  11.1341  11.1341  11.2092  11.2092  11.2249  11.2249
    11.2606  11.2606  11.3006  11.3006  11.3089  11.3089  11.3203  11.3203
    11.3340  11.3340  11.3796  11.3796  11.4416  11.4416  11.4990  11.4990
    11.5260  11.5260  11.5991  11.5991  11.6092  11.6092  11.6359  11.6359
    11.6930  11.6930  11.7604  11.7604  11.7671  11.7671  11.7724  11.7724
    11.8430  11.8430  11.8435  11.8435  11.8742  11.8742  12.0152  12.0152
    12.0287  12.0287  12.0817  12.0817  12.0885  12.0885  12.0929  12.0929
    12.0992  12.0992  12.1876  12.1876  12.2303  12.2303  12.2589  12.2589
    12.2955  12.2955  12.3868  12.3868  12.4263  12.4263  12.4476  12.4476
    12.4924  12.4924  12.5343  12.5343  12.5529  12.5529  12.5788  12.5788
    12.5810  12.5810  12.6147  12.6147  12.6669  12.6669  12.7281  12.7281
    12.7652  12.7652  12.7787  12.7787  12.8350  12.8350  12.9114  12.9114
    12.9157  12.9157  12.9258  12.9258  12.9506  12.9506  13.0058  13.0059
    13.0223  13.0223  13.1168  13.1168  13.1309  13.1309  13.1931  13.1931
    13.2289  13.2289  13.2744  13.2744  13.2777  13.2777  13.3046  13.3046
    13.3271  13.3271  13.4002  13.4002  13.4218  13.4218  13.4309  13.4309
    13.4392  13.4392  13.4529  13.4529  13.5611  13.5611  13.6156  13.6156
    13.6183  13.6183  13.6329  13.6329  13.6497  13.6497  13.6770  13.6770
    13.7157  13.7157  13.7441  13.7441  13.7519  13.7519  13.7995  13.7995
    13.8675  13.8675  13.8985  13.8985  14.0083  14.0083  14.0116  14.0116
    14.0392  14.0392  14.0524  14.0525  14.1052  14.1052  14.1162  14.1162
    14.1446  14.1446  14.1918  14.1918  14.2002  14.2002  14.2198  14.2198
    14.2506  14.2506  14.2560  14.2560  14.3447  14.3447  14.3939  14.3939
    14.4563  14.4569  14.4690  14.4690  14.5071  14.5071  14.5084  14.5084
    14.6135  14.6135  14.6270  14.6333  14.6333

          k = 0.2500 0.0962 0.0000 (220225 PWs)   bands (ev):

    -0.7372  -0.4406  -0.3967  -0.1548  -0.1061  -0.0847   0.0988   0.1714
     0.1799   0.2399   0.3815   0.4365   0.4920   0.6178   0.6469   0.6743
     0.7139   0.7344   0.9016   0.9458   0.9506   1.0348   1.0431   1.1486
     1.1544   1.1652   1.1979   1.2038   1.2655   1.2720   1.2809   1.2943
     1.3081   1.3872   1.3916   1.4700   1.4778   1.4964   1.5129   1.5596
     1.5749   1.5861   1.6012   1.6172   1.6296   1.6347   1.6490   1.6503
     1.6524   1.6688   1.6768   1.6800   1.7011   1.7087   1.7201   1.7420
     1.7712   1.7732   1.7828   1.7841   1.7874   1.7997   1.8188   1.8191
     1.8489   1.8669   1.8750   1.8782   1.8936   1.8996   1.9018   1.9139
     1.9188   1.9254   1.9258   1.9641   1.9817   1.9843   2.0013   2.0015
     2.0123   2.0129   2.0165   2.0199   2.0350   2.0357   2.0456   2.0479
     2.0639   2.0689   2.0731   2.0744   2.0792   2.0924   2.1040   2.1064
     2.1074   2.1109   2.1175   2.1238   2.1250   2.1308   2.1391   2.1459
     2.1482   2.1538   2.1539   2.1546   2.1585   2.1597   2.1606   2.1633
     2.1651   2.1707   2.1812   2.1913   2.1931   2.2023   2.2042   2.2085
     2.2133   2.2157   2.2209   2.2211   2.2288   2.2301   2.2415   2.2444
     2.2484   2.2684   2.2786   2.2802   2.2804   2.2810   2.2835   2.2860
     2.2883   2.2890   2.2921   2.2943   2.2968   2.3010   2.3048   2.3110
     2.3163   2.3279   2.3413   2.3423   2.3425   2.3456   2.3517   2.3517
     2.3562   2.3624   2.3667   2.3731   2.3736   2.3864   2.3875   2.3886
     2.3889   2.4043   2.4081   2.4083   2.4122   2.4141   2.4178   2.4278
     2.4322   2.4338   2.4362   2.4403   2.4492   2.4520   2.4555   2.4581
     2.4591   2.4700   2.4724   2.4734   2.4803   2.4815   2.4923   2.4929
     2.4967   2.5015   2.5061   2.5077   2.5109   2.5226   2.5233   2.5340
     2.5377   2.5388   2.5418   2.5466   2.5472   2.5508   2.5719   2.5780
     2.5817   2.5873   2.5897   2.5897   2.5900   2.5907   2.5948   2.5970
     2.5973   2.5987   2.6015   2.6202   2.6242   2.6296   2.6333   2.6379
     2.6393   2.6409   2.6479   2.6485   2.6627   2.6631   2.6633   2.6679
     2.6756   2.6764   2.6786   2.6849   2.6855   2.6937   2.6955   2.7062
     2.7098   2.7122   2.7157   2.7200   2.7210   2.7223   2.7238   2.7239
     2.7323   2.7329   2.7333   2.7396   2.7507   2.7517   2.7524   2.7532
     2.7624   2.7626   2.7773   2.7860   2.7889   2.7897   2.7928   2.7935
     2.7937   2.8031   2.8040   2.8118   2.8250   2.8260   2.8306   2.8313
     2.8323   2.8480   2.8610   2.8637   2.8651   2.8652   2.8660   2.8673
     2.8787   2.8858   2.8937   2.8953   2.8980   2.8997   2.9006   2.9053
     2.9061   2.9155   2.9191   2.9193   2.9229   2.9236   2.9330   2.9372
     2.9482   2.9515   2.9523   2.9698   2.9765   2.9845   2.9914   2.9916
     2.9946   3.0026   3.0087   3.0185   3.0231   3.0233   3.0251   3.0294
     3.0343   3.0441   3.0606   3.0640   3.0732   3.0745   3.0752   3.0848
     3.0915   3.1065   3.1099   3.1113   3.1113   3.1140   3.1230   3.1269
     3.1436   3.1447   3.1539   3.1627   3.1680   3.1691   3.1693   3.1707
     3.1761   3.1772   3.1787   3.1791   3.1880   3.1888   3.1942   3.1956
     3.1960   3.2073   3.2210   3.2221   3.2239   3.2249   3.2295   3.2307
     3.2328   3.2427   3.2436   3.2544   3.2577   3.2595   3.2598   3.2739
     3.2837   3.2873   3.2935   3.2958   3.2960   3.2991   3.2994   3.3045
     3.3061   3.3062   3.3099   3.3187   3.3240   3.3244   3.3244   3.3289
     3.3291   3.3295   3.3324   3.3383   3.3393   3.3466   3.3480   3.3481
     3.3514   3.3578   3.3597   3.3598   3.3629   3.3674   3.3721   3.3796
     3.3833   3.3859   3.3859   3.3885   3.3902   3.3983   3.4080   3.4114
     3.4116   3.4133   3.4145   3.4166   3.4366   3.4376   3.4377   3.4426
     3.4469   3.4472   3.4516   3.4520   3.4593   3.4624   3.4694   3.4703
     3.4711   3.4731   3.4783   3.4805   3.4855   3.4857   3.4892   3.4912
     3.5042   3.5049   3.5053   3.5071   3.5224   3.5224   3.5241   3.5313
     3.5334   3.5342   3.5375   3.5395   3.5487   3.5526   3.5529   3.5531
     3.5593   3.5614   3.5626   3.5648   3.5679   3.5776   3.5865   3.5890
     3.5924   3.5963   3.5970   3.5983   3.5998   3.6023   3.6086   3.6090
     3.6103   3.6110   3.6134   3.6173   3.6175   3.6215   3.6244   3.6291
     3.6307   3.6442   3.6497   3.6513   3.6545   3.6588   3.6613   3.6688
     3.6702   3.6737   3.6738   3.6839   3.6918   3.6932   3.6970   3.7052
     3.7059   3.7102   3.7139   3.7155   3.7161   3.7176   3.7215   3.7228
     3.7228   3.7247   3.7296   3.7350   3.7370   3.7468   3.7480   3.7593
     3.7635   3.7662   3.7745   3.7751   3.7777   3.7778   3.7922   3.7956
     3.8030   3.8087   3.8099   3.8127   3.8146   3.8156   3.8178   3.8272
     3.8288   3.8315   3.8375   3.8381   3.8391   3.8415   3.8416   3.8471
     3.8501   3.8542   3.8569   3.8589   3.8599   3.8619   3.8621   3.8636
     3.8702   3.8712   3.8754   3.8801   3.8803   3.8812   3.8817   3.8836
     3.8854   3.8922   3.8937   3.8954   3.8983   3.9000   3.9088   3.9143
     3.9185   3.9309   3.9332   3.9339   3.9343   3.9346   3.9347   3.9350
     3.9355   3.9449   3.9522   3.9533   3.9544   3.9557   3.9575   3.9581
     3.9628   3.9662   3.9724   3.9725   3.9742   3.9744   3.9758   3.9762
     3.9766   3.9807   3.9818   3.9833   3.9838   3.9897   3.9930   3.9974
     3.9978   4.0021   4.0054   4.0099   4.0103   4.0116   4.0188   4.0234
     4.0302   4.0307   4.0325   4.0333   4.0334   4.0339   4.0359   4.0458
     4.0521   4.0544   4.0562   4.0582   4.0634   4.0641   4.0661   4.0664
     4.0729   4.0746   4.0747   4.0780   4.0784   4.0807   4.0811   4.0814
     4.0827   4.0921   4.0928   4.0957   4.0959   4.0961   4.0963   4.0973
     4.0990   4.1010   4.1018   4.1054   4.1063   4.1097   4.1105   4.1109
     4.1115   4.1139   4.1258   4.1282   4.1301   4.1321   4.1322   4.1376
     4.1380   4.1380   4.1484   4.1486   4.1501   4.1529   4.1539   4.1557
     4.1585   4.1610   4.1647   4.1684   4.1692   4.1748   4.1752   4.1781
     4.1814   4.1826   4.1833   4.1845   4.1861   4.1891   4.1911   4.1915
     4.1930   4.1937   4.1977   4.1986   4.1989   4.2004   4.2021   4.2038
     4.2055   4.2078   4.2082   4.2085   4.2086   4.2121   4.2186   4.2190
     4.2203   4.2222   4.2228   4.2242   4.2286   4.2287   4.2288   4.2300
     4.2312   4.2346   4.2367   4.2463   4.2473   4.2505   4.2509   4.2519
     4.2585   4.2648   4.2668   4.2697   4.2721   4.2730   4.2863   4.2908
     4.2919   4.2926   4.2934   4.2939   4.2964   4.2967   4.2983   4.2994
     4.3026   4.3031   4.3036   4.3041   4.3122   4.3122   4.3212   4.3217
     4.3228   4.3297   4.3305   4.3322   4.3329   4.3331   4.3409   4.3421
     4.3455   4.3512   4.3527   4.3542   4.3572   4.3578   4.3596   4.3623
     4.3650   4.3652   4.3674   4.3687   4.3764   4.3788   4.3838   4.3870
     4.3879   4.3935   4.3941   4.3963   4.3965   4.3982   4.4040   4.4059
     4.4063   4.4071   4.4127   4.4134   4.4216   4.4266   4.4275   4.4321
     4.4340   4.4355   4.4377   4.4399   4.4399   4.4439   4.4497   4.4510
     4.4529   4.4595   4.4609   4.4619   4.4648   4.4714   4.4753   4.4803
     4.4826   4.4900   4.4954   4.4979   4.4989   4.4993   4.5011   4.5038
     4.5131   4.5142   4.5179   4.5231   4.5242   4.5338   4.5340   4.5346
     4.5367   4.5409   4.5423   4.5426   4.5430   4.5478   4.5524   4.5554
     4.5557   4.5560   4.5609   4.5696   4.5760   4.5822   4.5829   4.5896
[...]
     atom   58 type  1   force =     0.00000000    0.00056168   -0.00390256
     atom   59 type  1   force =     0.00000215    0.00056196   -0.00390190
     atom   60 type  1   force =     0.00000000    0.00056222   -0.00390047
     atom   61 type  1   force =    -0.00000185   -0.00053449    0.00451766
     atom   62 type  1   force =    -0.00000181   -0.00053445    0.00451747
     atom   63 type  1   force =    -0.00000181   -0.00053465    0.00451734
     atom   64 type  1   force =    -0.00000171   -0.00053432    0.00451649
     atom   65 type  1   force =    -0.00000170   -0.00053429    0.00451631
     atom   66 type  1   force =     0.00000183   -0.00053468    0.00451755
     atom   67 type  1   force =     0.00000185   -0.00053449    0.00451766
     atom   68 type  1   force =     0.00000181   -0.00053445    0.00451747
     atom   69 type  1   force =     0.00000181   -0.00053465    0.00451734
     atom   70 type  1   force =    -0.00000214    0.00056213   -0.00390207
     atom   71 type  1   force =    -0.00000213    0.00056203   -0.00390223
     atom   72 type  1   force =     0.00000214    0.00056213   -0.00390207
     atom   73 type  1   force =     0.00000213    0.00056203   -0.00390223
     atom   74 type  1   force =     0.00000000    0.00056221   -0.00390025
     atom   75 type  1   force =     0.00000000    0.00056237   -0.00390034
     atom   76 type  1   force =     0.00000000    0.00056229   -0.00390049
     atom   77 type  1   force =    -0.00000171   -0.00053448    0.00451620
     atom   78 type  1   force =     0.00000171   -0.00053432    0.00451649
     atom   79 type  1   force =     0.00000170   -0.00053429    0.00451631
     atom   80 type  1   force =     0.00000171   -0.00053448    0.00451620
     atom   81 type  1   force =     0.00000181   -0.00045322   -0.00053261
     atom   82 type  1   force =     0.00000000    0.00028723   -0.00076322
     atom   83 type  1   force =    -0.00000227    0.00028815   -0.00076404
     atom   84 type  1   force =     0.00000000    0.00028876   -0.00076539
     atom   85 type  1   force =    -0.00000232   -0.00045353   -0.00053332
     atom   86 type  1   force =     0.00000000    0.00028724   -0.00076316
     atom   87 type  1   force =    -0.00000227    0.00028809   -0.00076403
     atom   88 type  1   force =    -0.00000228    0.00028820   -0.00076400
     atom   89 type  1   force =     0.00000000    0.00028873   -0.00076537
     atom   90 type  1   force =     0.00000227    0.00028809   -0.00076403
     atom   91 type  1   force =    -0.00000230   -0.00045347   -0.00053328
     atom   92 type  1   force =    -0.00000181   -0.00045322   -0.00053261
     atom   93 type  1   force =    -0.00000179   -0.00045315   -0.00053260
     atom   94 type  1   force =     0.00000179   -0.00045315   -0.00053260
     atom   95 type  1   force =     0.00000232   -0.00045353   -0.00053332
     atom   96 type  1   force =     0.00000000    0.00028717   -0.00076321
     atom   97 type  1   force =    -0.00000228    0.00028818   -0.00076409
     atom   98 type  1   force =     0.00000000    0.00028880   -0.00076545
     atom   99 type  1   force =     0.00000227    0.00028815   -0.00076404
     atom  100 type  1   force =     0.00000228    0.00028818   -0.00076409
     atom  101 type  1   force =    -0.00000231   -0.00045342   -0.00053331
     atom  102 type  1   force =    -0.00000230   -0.00045353   -0.00053336
     atom  103 type  1   force =    -0.00000178   -0.00045309   -0.00053260
     atom  104 type  1   force =    -0.00000180   -0.00045321   -0.00053266
     atom  105 type  1   force =     0.00000178   -0.00045309   -0.00053260
     atom  106 type  1   force =     0.00000230   -0.00045347   -0.00053328
     atom  107 type  1   force =     0.00000231   -0.00045342   -0.00053331
     atom  108 type  1   force =     0.00000000    0.00028725   -0.00076326
     atom  109 type  1   force =     0.00000000    0.00028879   -0.00076536
     atom  110 type  1   force =     0.00000228    0.00028820   -0.00076400
     atom  111 type  1   force =     0.00000180   -0.00045321   -0.00053266
     atom  112 type  1   force =     0.00000230   -0.00045353   -0.00053336
     atom  113 type  1   force =    -0.00000120   -0.00018636    0.00041441
     atom  114 type  1   force =     0.00000121   -0.00018633    0.00041434
     atom  115 type  1   force =     0.00000000    0.00019663   -0.00055957
     atom  116 type  1   force =    -0.00000121   -0.00018633    0.00041434
     atom  117 type  1   force =    -0.00000151   -0.00018651    0.00041468
     atom  118 type  1   force =    -0.00000152   -0.00018654    0.00041474
     atom  119 type  1   force =     0.00000151   -0.00018651    0.00041468
     atom  120 type  1   force =    -0.00000244    0.00019728   -0.00056035
     atom  121 type  1   force =    -0.00000244    0.00019745   -0.00056034
     atom  122 type  1   force =     0.00000000    0.00019682   -0.00055957
     atom  123 type  1   force =     0.00000244    0.00019728   -0.00056035
     atom  124 type  1   force =     0.00000000    0.00019683   -0.00056132
     atom  125 type  1   force =    -0.00000122   -0.00018620    0.00041440
     atom  126 type  1   force =    -0.00000121   -0.00018622    0.00041436
     atom  127 type  1   force =    -0.00000152   -0.00018638    0.00041473
     atom  128 type  1   force =    -0.00000151   -0.00018639    0.00041470
     atom  129 type  1   force =     0.00000152   -0.00018654    0.00041474
     atom  130 type  1   force =     0.00000152   -0.00018638    0.00041473
     atom  131 type  1   force =     0.00000151   -0.00018639    0.00041470
     atom  132 type  1   force =     0.00000120   -0.00018636    0.00041441
     atom  133 type  1   force =     0.00000122   -0.00018620    0.00041440
     atom  134 type  1   force =     0.00000121   -0.00018622    0.00041436
     atom  135 type  1   force =    -0.00000243    0.00019737   -0.00056038
     atom  136 type  1   force =    -0.00000243    0.00019738   -0.00056037
     atom  137 type  1   force =     0.00000000    0.00019673   -0.00055962
     atom  138 type  1   force =     0.00000000    0.00019672   -0.00055963
     atom  139 type  1   force =     0.00000244    0.00019745   -0.00056034
     atom  140 type  1   force =     0.00000243    0.00019737   -0.00056038
     atom  141 type  1   force =     0.00000243    0.00019738   -0.00056037
     atom  142 type  1   force =     0.00000000    0.00019700   -0.00056128
     atom  143 type  1   force =     0.00000000    0.00019692   -0.00056134
     atom  144 type  1   force =     0.00000000    0.00019693   -0.00056132
     atom  145 type  1   force =    -0.00000240    0.00018797   -0.00041641
     atom  146 type  1   force =     0.00000000    0.00018765   -0.00041684
     atom  147 type  1   force =     0.00000240    0.00018797   -0.00041641
     atom  148 type  1   force =    -0.00000246   -0.00019657    0.00055909
     atom  149 type  1   force =    -0.00000176   -0.00019548    0.00055925
     atom  150 type  1   force =    -0.00000176   -0.00019546    0.00055927
     atom  151 type  1   force =    -0.00000240    0.00018790   -0.00041633
     atom  152 type  1   force =    -0.00000241    0.00018794   -0.00041637
     atom  153 type  1   force =    -0.00000240    0.00018790   -0.00041640
     atom  154 type  1   force =     0.00000000    0.00018761   -0.00041678
     atom  155 type  1   force =     0.00000000    0.00018762   -0.00041683
     atom  156 type  1   force =     0.00000000    0.00018759   -0.00041685
     atom  157 type  1   force =     0.00000240    0.00018790   -0.00041633
     atom  158 type  1   force =     0.00000241    0.00018794   -0.00041637
     atom  159 type  1   force =     0.00000240    0.00018790   -0.00041640
     atom  160 type  1   force =     0.00000000    0.00018862   -0.00041760
     atom  161 type  1   force =     0.00000000    0.00018859   -0.00041752
     atom  162 type  1   force =     0.00000000    0.00018858   -0.00041757
     atom  163 type  1   force =     0.00000000    0.00018857   -0.00041759
     atom  164 type  1   force =    -0.00000245   -0.00019655    0.00055911
     atom  165 type  1   force =    -0.00000245   -0.00019655    0.00055909
     atom  166 type  1   force =    -0.00000244   -0.00019662    0.00055904
     atom  167 type  1   force =    -0.00000176   -0.00019549    0.00055923
     atom  168 type  1   force =    -0.00000175   -0.00019554    0.00055920
     atom  169 type  1   force =     0.00000176   -0.00019548    0.00055925
     atom  170 type  1   force =     0.00000176   -0.00019546    0.00055927
     atom  171 type  1   force =     0.00000176   -0.00019549    0.00055923
     atom  172 type  1   force =     0.00000175   -0.00019554    0.00055920
     atom  173 type  1   force =     0.00000246   -0.00019657    0.00055909
     atom  174 type  1   force =     0.00000245   -0.00019655    0.00055911
     atom  175 type  1   force =     0.00000245   -0.00019655    0.00055909
     atom  176 type  1   force =     0.00000244   -0.00019662    0.00055904
     atom  177 type  1   force =     0.00000000    0.00045345    0.00053970
     atom  178 type  1   force =     0.00000000    0.00045344    0.00053964
     atom  179 type  1   force =    -0.00000324    0.00045435    0.00053981
     atom  180 type  1   force =    -0.00000323    0.00045431    0.00053973
     atom  181 type  1   force =     0.00000000    0.00045380    0.00053922
     atom  182 type  1   force =     0.00000324    0.00045435    0.00053981
     atom  183 type  1   force =    -0.00000237   -0.00028708    0.00076693
     atom  184 type  1   force =    -0.00000243   -0.00028727    0.00076797
     atom  185 type  1   force =     0.00000243   -0.00028727    0.00076797
     atom  186 type  1   force =     0.00000000    0.00045346    0.00053967
     atom  187 type  1   force =    -0.00000324    0.00045433    0.00053978
     atom  188 type  1   force =    -0.00000324    0.00045430    0.00053979
     atom  189 type  1   force =     0.00000000    0.00045380    0.00053915
     atom  190 type  1   force =     0.00000000    0.00045378    0.00053916
     atom  191 type  1   force =     0.00000324    0.00045433    0.00053978
     atom  192 type  1   force =     0.00000324    0.00045430    0.00053979
     atom  193 type  1   force =    -0.00000237   -0.00028703    0.00076688
     atom  194 type  1   force =    -0.00000238   -0.00028707    0.00076695
     atom  195 type  1   force =    -0.00000238   -0.00028714    0.00076694
     atom  196 type  1   force =    -0.00000244   -0.00028725    0.00076792
     atom  197 type  1   force =    -0.00000245   -0.00028727    0.00076799
     atom  198 type  1   force =    -0.00000243   -0.00028731    0.00076799
     atom  199 type  1   force =     0.00000244   -0.00028725    0.00076792
     atom  200 type  1   force =     0.00000245   -0.00028727    0.00076799
     atom  201 type  1   force =     0.00000243   -0.00028731    0.00076799
     atom  202 type  1   force =     0.00000237   -0.00028708    0.00076693
     atom  203 type  1   force =     0.00000237   -0.00028703    0.00076688
     atom  204 type  1   force =     0.00000238   -0.00028707    0.00076695
     atom  205 type  1   force =     0.00000238   -0.00028714    0.00076694
     atom  206 type  1   force =     0.00000000    0.00045345    0.00053967
     atom  207 type  1   force =     0.00000000    0.00045375    0.00053914
     atom  208 type  1   force =     0.00000323    0.00045431    0.00053973
     atom  209 type  1   force =    -0.00000165   -0.00056107    0.00389620
     atom  210 type  1   force =    -0.00000101   -0.00056144    0.00389550
     atom  211 type  1   force =     0.00000101   -0.00056144    0.00389550
     atom  212 type  1   force =     0.00000168   -0.00056124    0.00389611
     atom  213 type  1   force =    -0.00000262    0.00053481   -0.00452190
     atom  214 type  1   force =     0.00000000    0.00053601   -0.00452244
     atom  215 type  1   force =     0.00000261    0.00053493   -0.00452196
     atom  216 type  1   force =     0.00000000    0.00053399   -0.00452143
     atom  217 type  1   force =    -0.00000167   -0.00056125    0.00389612
     atom  218 type  1   force =    -0.00000168   -0.00056124    0.00389611
     atom  219 type  1   force =    -0.00000164   -0.00056113    0.00389621
     atom  220 type  1   force =    -0.00000103   -0.00056164    0.00389547
     atom  221 type  1   force =    -0.00000104   -0.00056162    0.00389547
     atom  222 type  1   force =     0.00000103   -0.00056164    0.00389547
     atom  223 type  1   force =     0.00000104   -0.00056162    0.00389547
     atom  224 type  1   force =     0.00000167   -0.00056125    0.00389612
     atom  225 type  1   force =     0.00000165   -0.00056107    0.00389620
     atom  226 type  1   force =    -0.00000263    0.00053476   -0.00452200
     atom  227 type  1   force =    -0.00000261    0.00053493   -0.00452196
     atom  228 type  1   force =    -0.00000262    0.00053479   -0.00452188
     atom  229 type  1   force =     0.00000000    0.00053583   -0.00452246
     atom  230 type  1   force =     0.00000000    0.00053591   -0.00452236
     atom  231 type  1   force =     0.00000263    0.00053476   -0.00452200
     atom  232 type  1   force =     0.00000262    0.00053481   -0.00452190
     atom  233 type  1   force =     0.00000000    0.00053380   -0.00452140
     atom  234 type  1   force =     0.00000000    0.00053388   -0.00452135
     atom  235 type  1   force =    -0.00000102   -0.00056153    0.00389555
     atom  236 type  1   force =     0.00000102   -0.00056153    0.00389555
     atom  237 type  1   force =     0.00000164   -0.00056113    0.00389621
     atom  238 type  1   force =     0.00000000    0.00053592   -0.00452234
     atom  239 type  1   force =     0.00000262    0.00053479   -0.00452188
     atom  240 type  1   force =     0.00000000    0.00053388   -0.00452135
     atom  241 type  1   force =    -0.00000259   -0.00335696    0.01659481
     atom  242 type  1   force =     0.00000000   -0.00335710    0.01659424
     atom  243 type  1   force =     0.00000257   -0.00335701    0.01659472
     atom  244 type  1   force =     0.00000000   -0.00335646    0.01659658
     atom  245 type  1   force =    -0.00000133    0.00159855    0.00968731
     atom  246 type  1   force =    -0.00000128    0.00159970    0.00968382
     atom  247 type  1   force =     0.00000128    0.00159970    0.00968382
     atom  248 type  1   force =     0.00000131    0.00159861    0.00968715
     atom  249 type  1   force =    -0.00000258   -0.00335714    0.01659473
     atom  250 type  1   force =    -0.00000257   -0.00335701    0.01659472
     atom  251 type  1   force =    -0.00000258   -0.00335709    0.01659487
     atom  252 type  1   force =     0.00000000   -0.00335727    0.01659420
     atom  253 type  1   force =     0.00000000   -0.00335721    0.01659420
     atom  254 type  1   force =     0.00000258   -0.00335714    0.01659473
     atom  255 type  1   force =     0.00000259   -0.00335696    0.01659481
     atom  256 type  1   force =     0.00000000   -0.00335654    0.01659661
     atom  257 type  1   force =     0.00000000   -0.00335640    0.01659672
     atom  258 type  1   force =    -0.00000130    0.00159849    0.00968707
     atom  259 type  1   force =    -0.00000131    0.00159861    0.00968715
     atom  260 type  1   force =    -0.00000133    0.00159838    0.00968721
     atom  261 type  1   force =    -0.00000127    0.00159962    0.00968371
     atom  262 type  1   force =    -0.00000129    0.00159964    0.00968392
     atom  263 type  1   force =     0.00000127    0.00159962    0.00968371
     atom  264 type  1   force =     0.00000129    0.00159964    0.00968392
     atom  265 type  1   force =     0.00000130    0.00159849    0.00968707
     atom  266 type  1   force =     0.00000133    0.00159855    0.00968731
     atom  267 type  1   force =     0.00000000   -0.00335730    0.01659436
     atom  268 type  1   force =     0.00000258   -0.00335709    0.01659487
     atom  269 type  1   force =     0.00000000   -0.00335657    0.01659679
     atom  270 type  1   force =    -0.00000129    0.00159956    0.00968385
     atom  271 type  1   force =     0.00000129    0.00159956    0.00968385
     atom  272 type  1   force =     0.00000133    0.00159838    0.00968721
     atom  273 type  1   force =    -0.00000039    0.00165145   -0.02671246
     atom  274 type  1   force =     0.00000096    0.00164905   -0.02671582
     atom  275 type  1   force =    -0.00000090    0.00164899   -0.02671601
     atom  276 type  1   force =     0.00000030    0.00165136   -0.02671272
     atom  277 type  1   force =    -0.00000036    0.00165108   -0.02671256
     atom  278 type  1   force =    -0.00000030    0.00165136   -0.02671272
     atom  279 type  1   force =    -0.00000038    0.00165107   -0.02671237
     atom  280 type  1   force =     0.00000092    0.00164874   -0.02671589
     atom  281 type  1   force =     0.00000090    0.00164899   -0.02671601
     atom  282 type  1   force =    -0.00000092    0.00164874   -0.02671589
     atom  283 type  1   force =    -0.00000096    0.00164905   -0.02671582
     atom  284 type  1   force =     0.00000036    0.00165108   -0.02671256
     atom  285 type  1   force =     0.00000039    0.00165145   -0.02671246
     atom  286 type  1   force =     0.00000038    0.00165107   -0.02671237
     atom  287 type  1   force =     0.00000089    0.00164871   -0.02671574
     atom  288 type  1   force =    -0.00000089    0.00164871   -0.02671574

     Total force =     0.190813     Total SCF correction =     0.001708
 
     init_run     :    411.44s CPU     62.11s WALL (       1 calls)
     electrons    :  30784.68s CPU   4196.51s WALL (       1 calls)
     forces       :    217.76s CPU     29.52s WALL (       1 calls)

     Called by init_run:
     wfcinit      :    392.61s CPU     56.24s WALL (       1 calls)
     potinit      :      7.39s CPU      0.98s WALL (       1 calls)
     hinit0       :      7.11s CPU      2.08s WALL (       1 calls)

     Called by electrons:
     c_bands      :  28407.46s CPU   3883.35s WALL (      25 calls)
     sum_band     :   2165.23s CPU    283.22s WALL (      25 calls)
     v_of_rho     :    115.07s CPU     15.27s WALL (      25 calls)
     newd         :     46.92s CPU      7.93s WALL (      25 calls)
     mix_rho      :     35.13s CPU      4.68s WALL (      25 calls)

     Called by c_bands:
     init_us_2    :     62.36s CPU      8.49s WALL (      51 calls)
     cegterg      :  27864.00s CPU   3559.79s WALL (      25 calls)

     Called by *egterg:
     cdiaghg      :   8957.08s CPU   1153.06s WALL (     203 calls)
     h_psi        :   8300.80s CPU   1062.89s WALL (     205 calls)
     s_psi        :   2367.86s CPU    298.16s WALL (     205 calls)
     g_psi        :     13.22s CPU      1.66s WALL (     179 calls)

     Called by h_psi:
     h_psi:calbec :   2232.36s CPU    282.84s WALL (     205 calls)
     vloc_psi     :   3668.08s CPU    475.75s WALL (     205 calls)
     add_vuspsi   :   2364.40s CPU    297.57s WALL (     205 calls)

     General routines
     calbec       :   3343.10s CPU    423.30s WALL (     234 calls)
     fft          :     62.89s CPU      8.44s WALL (     335 calls)
     ffts         :      2.33s CPU      0.33s WALL (      50 calls)
     fftw         :   4075.49s CPU    530.37s WALL (  259159 calls)
     interpolate  :      7.83s CPU      1.04s WALL (      25 calls)
 
     Parallel routines
     fft_scatt_xy :    778.35s CPU     98.41s WALL (  259544 calls)
     fft_scatt_yz :   1658.38s CPU    225.74s WALL (  259544 calls)
 
     PWSCF        :      8h43m CPU      1h11m WALL

 
   This run was terminated on:  22:55:46  22Sep2021            

=------------------------------------------------------------------------------=
   JOB DONE.
=------------------------------------------------------------------------------=
