
     Program PWSCF v.6.6 starts on 15Sep2021 at 11:16:23 

     This program is part of the open-source Quantum ESPRESSO suite
     for quantum simulation of materials; please cite
         "P. Giannozzi et al., J. Phys.:Condens. Matter 21 395502 (2009);
         "P. Giannozzi et al., J. Phys.:Condens. Matter 29 465901 (2017);
          URL http://www.quantum-espresso.org", 
     in publications or presentations arising from this work. More details at
     http://www.quantum-espresso.org/quote

     Parallel version (MPI & OpenMP), running on     768 processor cores
     Number of MPI processes:                96
     Threads/MPI process:                     8

     MPI processes distributed on    16 nodes
     K-points division:     npool     =       4
     R & G space division:  proc/nbgrp/npool/nimage =      24
     Fft bands division:     nmany     =       1
     Reading input from ../inputs/input_ausurf_432

     Current dimensions of program PWSCF are:
     Max number of different atomic species (ntypx) = 10
     Max number of k-points (npk) =  40000
     Max angular momentum in pseudopotentials (lmaxx) =  3

     Subspace diagonalization in iterative solution of the eigenvalue problem:
     one sub-group per band group will be used
     ELPA distributed-memory algorithm (size of sub-group:  4*  4 procs)

     Found symmetry operation: I + (  0.1667  0.0000  0.0000)
     This is a supercell, fractional translations are disabled
 
     Parallelization info
     --------------------
     sticks:   dense  smooth     PW     G-vecs:    dense   smooth      PW
     Min        1498     685    176               356274   110125   14378
     Max        1500     686    177               356279   110134   14385
     Sum       35971   16449   4235              8550627  2643085  345153
 

     Title: 
      Ausurf                                                                    


     bravais-lattice index     =            8
     lattice parameter (alat)  =      33.4482  a.u.
     unit-cell volume          =   77333.9228 (a.u.)^3
     number of atoms/cell      =          432
     number of atomic types    =            1
     number of electrons       =      4752.00
     number of Kohn-Sham states=         2851
     kinetic-energy cutoff     =      40.0000  Ry
     charge density cutoff     =     350.0000  Ry
     convergence threshold     =      1.0E-06
     mixing beta               =       0.7000
     number of iterations used =            8  TF        mixing
     Exchange-correlation=  SLA  PW   PBE  PBE
                           (   1   4   3   4   0   0   0)

     celldm(1)=  33.448152  celldm(2)=   1.154701  celldm(3)=   1.789717
     celldm(4)=   0.000000  celldm(5)=   0.000000  celldm(6)=   0.000000

     crystal axes: (cart. coord. in units of alat)
               a(1) = (   1.000000   0.000000   0.000000 )  
               a(2) = (   0.000000   1.154701   0.000000 )  
               a(3) = (   0.000000   0.000000   1.789717 )  

     reciprocal axes: (cart. coord. in units 2 pi/alat)
               b(1) = (  1.000000  0.000000  0.000000 )  
               b(2) = (  0.000000  0.866025  0.000000 )  
               b(3) = (  0.000000  0.000000  0.558748 )  


     PseudoPot. # 1 for Au read from file:
     /marconi/home/userexternal/czeni000/dft_src/pseudo/Au.pbe-nd-van.UPF
     MD5 check sum: deb5c07af10777505a79e28f5b4b4115
     Pseudo is Ultrasoft + core correction, Zval = 11.0
     Generated by new atomic code, or converted to UPF format
     Using radial grid of  985 points,  3 beta functions with: 
                l(1) =   1
                l(2) =   2
                l(3) =   2
     Q(r) pseudized with  8 coefficients,  rinner =    1.100   1.100   1.100
                                                       1.100   1.100

     atomic species   valence    mass     pseudopotential
        Au            11.00   196.96000     Au( 1.00)

      2 Sym. Ops. (no inversion) found



   Cartesian axes

     site n.     atom                  positions (alat units)
         1           Au  tau(   1) = (   0.0000000   0.0000000   0.0000000  )
         2           Au  tau(   2) = (   0.1666667   0.0000000   0.0000000  )
         3           Au  tau(   3) = (   0.3333333   0.0000000   0.0000000  )
         4           Au  tau(   4) = (   0.0000000   0.2886751   0.0000000  )
         5           Au  tau(   5) = (   0.5000000   0.0000000   0.0000000  )
         6           Au  tau(   6) = (   0.1666667   0.2886751   0.0000000  )
         7           Au  tau(   7) = (   0.6666667   0.0000000   0.0000000  )
         8           Au  tau(   8) = (   0.3333333   0.2886751   0.0000000  )
         9           Au  tau(   9) = (   0.8333333   0.0000000   0.0000000  )
        10           Au  tau(  10) = (   0.0000000   0.5773503   0.0000000  )
        11           Au  tau(  11) = (   0.5000000   0.2886751   0.0000000  )
        12           Au  tau(  12) = (   0.1666667   0.5773503   0.0000000  )
        13           Au  tau(  13) = (   0.6666667   0.2886751   0.0000000  )
        14           Au  tau(  14) = (   0.3333333   0.5773503   0.0000000  )
        15           Au  tau(  15) = (   0.8333333   0.2886751   0.0000000  )
        16           Au  tau(  16) = (   0.0000000   0.8660254   0.0000000  )
        17           Au  tau(  17) = (   0.5000000   0.5773503   0.0000000  )
        18           Au  tau(  18) = (   0.1666667   0.8660254   0.0000000  )
        19           Au  tau(  19) = (   0.6666667   0.5773503   0.0000000  )
        20           Au  tau(  20) = (   0.3333333   0.8660254   0.0000000  )
        21           Au  tau(  21) = (   0.8333333   0.5773503   0.0000000  )
        22           Au  tau(  22) = (   0.5000000   0.8660254   0.0000000  )
        23           Au  tau(  23) = (   0.6666667   0.8660254   0.0000000  )
        24           Au  tau(  24) = (   0.8333333   0.8660254   0.0000000  )
        25           Au  tau(  25) = (   0.0833333   0.0481125   0.1360828  )
        26           Au  tau(  26) = (   0.2500000   0.0481125   0.1360828  )
        27           Au  tau(  27) = (   0.4166667   0.0481125   0.1360828  )
        28           Au  tau(  28) = (   0.0833333   0.3367877   0.1360828  )
        29           Au  tau(  29) = (   0.4166667   0.3367877   0.1360828  )
        30           Au  tau(  30) = (   0.5833333   0.0481125   0.1360828  )
        31           Au  tau(  31) = (   0.9166667   0.0481125   0.1360828  )
        32           Au  tau(  32) = (   0.0833333   0.6254628   0.1360828  )
        33           Au  tau(  33) = (   0.2500000   0.3367877   0.1360828  )
        34           Au  tau(  34) = (   0.2500000   0.6254628   0.1360828  )
        35           Au  tau(  35) = (   0.5833333   0.3367877   0.1360828  )
        36           Au  tau(  36) = (   0.7500000   0.0481125   0.1360828  )
        37           Au  tau(  37) = (   0.7500000   0.3367877   0.1360828  )
        38           Au  tau(  38) = (   0.1666667   0.1924501   0.1360828  )
        39           Au  tau(  39) = (   0.1666667   0.4811252   0.1360828  )
        40           Au  tau(  40) = (   0.6666667   0.1924501   0.1360828  )
        41           Au  tau(  41) = (   0.2500000   0.9141379   0.1360828  )
        42           Au  tau(  42) = (   0.4166667   0.6254628   0.1360828  )
        43           Au  tau(  43) = (   0.7500000   0.6254628   0.1360828  )
        44           Au  tau(  44) = (   0.9166667   0.3367877   0.1360828  )
        45           Au  tau(  45) = (   0.3333333   0.1924501   0.1360828  )
        46           Au  tau(  46) = (   0.5000000   0.1924501   0.1360828  )
        47           Au  tau(  47) = (   0.0833333   0.9141379   0.1360828  )
        48           Au  tau(  48) = (   0.4166667   0.9141379   0.1360828  )
        49           Au  tau(  49) = (   0.5833333   0.6254628   0.1360828  )
        50           Au  tau(  50) = (   0.5833333   0.9141379   0.1360828  )
        51           Au  tau(  51) = (   0.9166667   0.6254628   0.1360828  )
        52           Au  tau(  52) = (   0.3333333   0.4811252   0.1360828  )
        53           Au  tau(  53) = (   0.5000000   0.4811252   0.1360828  )
        54           Au  tau(  54) = (   0.5000000   0.7698003   0.1360828  )
        55           Au  tau(  55) = (   0.8333333   0.1924501   0.1360828  )
        56           Au  tau(  56) = (   1.0000000   0.1924501   0.1360828  )
        57           Au  tau(  57) = (   1.0000000   0.4811252   0.1360828  )
        58           Au  tau(  58) = (   0.7500000   0.9141379   0.1360828  )
        59           Au  tau(  59) = (   0.1666667   0.7698003   0.1360828  )
        60           Au  tau(  60) = (   0.3333333   0.7698003   0.1360828  )
        61           Au  tau(  61) = (   0.6666667   0.4811252   0.1360828  )
        62           Au  tau(  62) = (   0.8333333   0.4811252   0.1360828  )
        63           Au  tau(  63) = (   0.9166667   0.9141379   0.1360828  )
        64           Au  tau(  64) = (   0.1666667   1.0584755   0.1360828  )
        65           Au  tau(  65) = (   0.3333333   1.0584755   0.1360828  )
        66           Au  tau(  66) = (   0.6666667   0.7698003   0.1360828  )
        67           Au  tau(  67) = (   0.8333333   0.7698003   0.1360828  )
        68           Au  tau(  68) = (   0.5000000   1.0584755   0.1360828  )
        69           Au  tau(  69) = (   0.6666667   1.0584755   0.1360828  )
        70           Au  tau(  70) = (   0.8333333   1.0584755   0.1360828  )
        71           Au  tau(  71) = (   1.0000000   0.7698003   0.1360828  )
        72           Au  tau(  72) = (   1.0000000   1.0584755   0.1360828  )
        73           Au  tau(  73) = (   0.1666667   0.0962250   0.2721655  )
        74           Au  tau(  74) = (   0.4166667   0.2405626   0.2721655  )
        75           Au  tau(  75) = (   0.3333333   0.0962250   0.2721655  )
        76           Au  tau(  76) = (   0.5000000   0.0962250   0.2721655  )
        77           Au  tau(  77) = (   0.0833333   0.2405626   0.2721655  )
        78           Au  tau(  78) = (   0.2500000   0.2405626   0.2721655  )
        79           Au  tau(  79) = (   0.1666667   0.3849002   0.2721655  )
        80           Au  tau(  80) = (   0.3333333   0.3849002   0.2721655  )
        81           Au  tau(  81) = (   0.3333333   0.6735753   0.2721655  )
        82           Au  tau(  82) = (   0.3333333   0.9622505   0.2721655  )
        83           Au  tau(  83) = (   0.5000000   0.3849002   0.2721655  )
        84           Au  tau(  84) = (   0.6666667   0.0962250   0.2721655  )
        85           Au  tau(  85) = (   0.8333333   0.0962250   0.2721655  )
        86           Au  tau(  86) = (   0.8333333   0.3849002   0.2721655  )
        87           Au  tau(  87) = (   0.8333333   0.6735753   0.2721655  )
        88           Au  tau(  88) = (   1.0000000   0.0962250   0.2721655  )
        89           Au  tau(  89) = (   0.0833333   0.5292377   0.2721655  )
        90           Au  tau(  90) = (   0.0833333   0.8179129   0.2721655  )
        91           Au  tau(  91) = (   0.0833333   1.1065880   0.2721655  )
        92           Au  tau(  92) = (   0.2500000   0.5292377   0.2721655  )
        93           Au  tau(  93) = (   0.2500000   0.8179129   0.2721655  )
        94           Au  tau(  94) = (   0.5833333   0.2405626   0.2721655  )
        95           Au  tau(  95) = (   0.5833333   0.5292377   0.2721655  )
        96           Au  tau(  96) = (   0.5833333   0.8179129   0.2721655  )
        97           Au  tau(  97) = (   0.5833333   1.1065880   0.2721655  )
        98           Au  tau(  98) = (   0.7500000   0.2405626   0.2721655  )
        99           Au  tau(  99) = (   0.7500000   0.5292377   0.2721655  )
       100           Au  tau( 100) = (   0.1666667   0.6735753   0.2721655  )
       101           Au  tau( 101) = (   0.1666667   0.9622505   0.2721655  )
       102           Au  tau( 102) = (   0.5000000   0.6735753   0.2721655  )
       103           Au  tau( 103) = (   0.5000000   0.9622505   0.2721655  )
       104           Au  tau( 104) = (   0.6666667   0.3849002   0.2721655  )
       105           Au  tau( 105) = (   0.6666667   0.6735753   0.2721655  )
       106           Au  tau( 106) = (   0.6666667   0.9622505   0.2721655  )
       107           Au  tau( 107) = (   1.0000000   0.3849002   0.2721655  )
       108           Au  tau( 108) = (   1.0000000   0.6735753   0.2721655  )
       109           Au  tau( 109) = (   0.2500000   1.1065880   0.2721655  )
       110           Au  tau( 110) = (   0.4166667   0.5292377   0.2721655  )
       111           Au  tau( 111) = (   0.4166667   0.8179129   0.2721655  )
       112           Au  tau( 112) = (   0.4166667   1.1065880   0.2721655  )
       113           Au  tau( 113) = (   0.7500000   0.8179129   0.2721655  )
       114           Au  tau( 114) = (   0.9166667   0.2405626   0.2721655  )
       115           Au  tau( 115) = (   0.9166667   0.5292377   0.2721655  )
       116           Au  tau( 116) = (   0.9166667   0.8179129   0.2721655  )
       117           Au  tau( 117) = (   0.8333333   0.9622505   0.2721655  )
       118           Au  tau( 118) = (   1.0000000   0.9622505   0.2721655  )
       119           Au  tau( 119) = (   0.7500000   1.1065880   0.2721655  )
       120           Au  tau( 120) = (   0.9166667   1.1065880   0.2721655  )
       121           Au  tau( 121) = (   0.4166667   0.1443376   0.4082483  )
       122           Au  tau( 122) = (   0.0000000   0.0000000   0.4082483  )
       123           Au  tau( 123) = (   0.1666667   0.0000000   0.4082483  )
       124           Au  tau( 124) = (   0.3333333   0.0000000   0.4082483  )
       125           Au  tau( 125) = (   0.0833333   0.1443376   0.4082483  )
       126           Au  tau( 126) = (   0.0000000   0.5773503   0.4082483  )
       127           Au  tau( 127) = (   0.1666667   0.2886751   0.4082483  )
       128           Au  tau( 128) = (   0.1666667   0.5773503   0.4082483  )
       129           Au  tau( 129) = (   0.3333333   0.2886751   0.4082483  )
       130           Au  tau( 130) = (   0.5000000   0.2886751   0.4082483  )
       131           Au  tau( 131) = (   0.6666667   0.0000000   0.4082483  )
       132           Au  tau( 132) = (   0.6666667   0.2886751   0.4082483  )
       133           Au  tau( 133) = (   0.8333333   0.0000000   0.4082483  )
       134           Au  tau( 134) = (   0.0833333   0.4330127   0.4082483  )
       135           Au  tau( 135) = (   0.2500000   0.1443376   0.4082483  )
       136           Au  tau( 136) = (   0.2500000   0.4330127   0.4082483  )
       137           Au  tau( 137) = (   0.4166667   0.4330127   0.4082483  )
       138           Au  tau( 138) = (   0.5833333   0.1443376   0.4082483  )
       139           Au  tau( 139) = (   0.7500000   0.1443376   0.4082483  )
       140           Au  tau( 140) = (   0.9166667   0.1443376   0.4082483  )
       141           Au  tau( 141) = (   0.0000000   0.2886751   0.4082483  )
       142           Au  tau( 142) = (   0.1666667   0.8660254   0.4082483  )
       143           Au  tau( 143) = (   0.3333333   0.8660254   0.4082483  )
       144           Au  tau( 144) = (   0.5000000   0.0000000   0.4082483  )
       145           Au  tau( 145) = (   0.5000000   0.8660254   0.4082483  )
       146           Au  tau( 146) = (   0.6666667   0.5773503   0.4082483  )
       147           Au  tau( 147) = (   0.8333333   0.5773503   0.4082483  )
       148           Au  tau( 148) = (   0.0833333   0.7216879   0.4082483  )
       149           Au  tau( 149) = (   0.0833333   1.0103630   0.4082483  )
       150           Au  tau( 150) = (   0.2500000   0.7216879   0.4082483  )
       151           Au  tau( 151) = (   0.2500000   1.0103630   0.4082483  )
       152           Au  tau( 152) = (   0.4166667   0.7216879   0.4082483  )
       153           Au  tau( 153) = (   0.5833333   0.4330127   0.4082483  )
       154           Au  tau( 154) = (   0.5833333   0.7216879   0.4082483  )
       155           Au  tau( 155) = (   0.7500000   0.4330127   0.4082483  )
       156           Au  tau( 156) = (   0.7500000   0.7216879   0.4082483  )
       157           Au  tau( 157) = (   0.9166667   0.4330127   0.4082483  )
       158           Au  tau( 158) = (   0.0000000   0.8660254   0.4082483  )
       159           Au  tau( 159) = (   0.3333333   0.5773503   0.4082483  )
       160           Au  tau( 160) = (   0.5000000   0.5773503   0.4082483  )
       161           Au  tau( 161) = (   0.6666667   0.8660254   0.4082483  )
       162           Au  tau( 162) = (   0.8333333   0.2886751   0.4082483  )
       163           Au  tau( 163) = (   0.8333333   0.8660254   0.4082483  )
       164           Au  tau( 164) = (   0.4166667   1.0103630   0.4082483  )
       165           Au  tau( 165) = (   0.5833333   1.0103630   0.4082483  )
       166           Au  tau( 166) = (   0.7500000   1.0103630   0.4082483  )
       167           Au  tau( 167) = (   0.9166667   0.7216879   0.4082483  )
       168           Au  tau( 168) = (   0.9166667   1.0103630   0.4082483  )
       169           Au  tau( 169) = (   0.0833333   0.3367877   0.5443311  )
       170           Au  tau( 170) = (   0.5833333   0.0481125   0.5443311  )
       171           Au  tau( 171) = (   0.3333333   0.1924501   0.5443311  )
       172           Au  tau( 172) = (   0.0833333   0.0481125   0.5443311  )
       173           Au  tau( 173) = (   0.2500000   0.0481125   0.5443311  )
       174           Au  tau( 174) = (   0.2500000   0.3367877   0.5443311  )
       175           Au  tau( 175) = (   0.4166667   0.0481125   0.5443311  )
       176           Au  tau( 176) = (   0.7500000   0.0481125   0.5443311  )
       177           Au  tau( 177) = (   0.1666667   0.1924501   0.5443311  )
       178           Au  tau( 178) = (   0.1666667   0.4811252   0.5443311  )
       179           Au  tau( 179) = (   0.3333333   0.4811252   0.5443311  )
       180           Au  tau( 180) = (   0.5000000   0.1924501   0.5443311  )
       181           Au  tau( 181) = (   0.6666667   0.1924501   0.5443311  )
       182           Au  tau( 182) = (   0.8333333   0.1924501   0.5443311  )
       183           Au  tau( 183) = (   0.0833333   0.6254628   0.5443311  )
       184           Au  tau( 184) = (   0.0833333   0.9141379   0.5443311  )
       185           Au  tau( 185) = (   0.2500000   0.6254628   0.5443311  )
       186           Au  tau( 186) = (   0.2500000   0.9141379   0.5443311  )
       187           Au  tau( 187) = (   0.4166667   0.3367877   0.5443311  )
       188           Au  tau( 188) = (   0.4166667   0.6254628   0.5443311  )
       189           Au  tau( 189) = (   0.4166667   0.9141379   0.5443311  )
       190           Au  tau( 190) = (   0.5833333   0.3367877   0.5443311  )
       191           Au  tau( 191) = (   0.5833333   0.6254628   0.5443311  )
       192           Au  tau( 192) = (   0.5833333   0.9141379   0.5443311  )
       193           Au  tau( 193) = (   0.7500000   0.3367877   0.5443311  )
       194           Au  tau( 194) = (   0.7500000   0.6254628   0.5443311  )
       195           Au  tau( 195) = (   0.7500000   0.9141379   0.5443311  )
       196           Au  tau( 196) = (   0.9166667   0.0481125   0.5443311  )
       197           Au  tau( 197) = (   0.9166667   0.3367877   0.5443311  )
       198           Au  tau( 198) = (   0.9166667   0.6254628   0.5443311  )
       199           Au  tau( 199) = (   0.1666667   0.7698003   0.5443311  )
       200           Au  tau( 200) = (   0.1666667   1.0584755   0.5443311  )
       201           Au  tau( 201) = (   0.3333333   0.7698003   0.5443311  )
       202           Au  tau( 202) = (   0.3333333   1.0584755   0.5443311  )
       203           Au  tau( 203) = (   0.5000000   0.4811252   0.5443311  )
       204           Au  tau( 204) = (   0.5000000   0.7698003   0.5443311  )
       205           Au  tau( 205) = (   0.5000000   1.0584755   0.5443311  )
       206           Au  tau( 206) = (   0.6666667   0.4811252   0.5443311  )
       207           Au  tau( 207) = (   0.6666667   0.7698003   0.5443311  )
       208           Au  tau( 208) = (   0.8333333   0.4811252   0.5443311  )
       209           Au  tau( 209) = (   0.8333333   0.7698003   0.5443311  )
       210           Au  tau( 210) = (   1.0000000   0.1924501   0.5443311  )
       211           Au  tau( 211) = (   1.0000000   0.4811252   0.5443311  )
       212           Au  tau( 212) = (   1.0000000   0.7698003   0.5443311  )
       213           Au  tau( 213) = (   1.0000000   1.0584755   0.5443311  )
       214           Au  tau( 214) = (   0.9166667   0.9141379   0.5443311  )
       215           Au  tau( 215) = (   0.6666667   1.0584755   0.5443311  )
       216           Au  tau( 216) = (   0.8333333   1.0584755   0.5443311  )
       217           Au  tau( 217) = (   0.1666667   0.0962250   0.6804138  )
       218           Au  tau( 218) = (   0.3333333   0.0962250   0.6804138  )
       219           Au  tau( 219) = (   0.5000000   0.0962250   0.6804138  )
       220           Au  tau( 220) = (   0.0833333   0.2405626   0.6804138  )
       221           Au  tau( 221) = (   0.2500000   0.2405626   0.6804138  )
       222           Au  tau( 222) = (   0.2500000   0.5292377   0.6804138  )
       223           Au  tau( 223) = (   0.7500000   0.2405626   0.6804138  )
       224           Au  tau( 224) = (   0.1666667   0.3849002   0.6804138  )
       225           Au  tau( 225) = (   0.1666667   0.6735753   0.6804138  )
       226           Au  tau( 226) = (   0.1666667   0.9622505   0.6804138  )
       227           Au  tau( 227) = (   0.3333333   0.3849002   0.6804138  )
       228           Au  tau( 228) = (   0.3333333   0.6735753   0.6804138  )
       229           Au  tau( 229) = (   0.3333333   0.9622505   0.6804138  )
       230           Au  tau( 230) = (   0.5000000   0.3849002   0.6804138  )
       231           Au  tau( 231) = (   0.5000000   0.6735753   0.6804138  )
       232           Au  tau( 232) = (   0.5000000   0.9622505   0.6804138  )
       233           Au  tau( 233) = (   0.6666667   0.0962250   0.6804138  )
       234           Au  tau( 234) = (   0.6666667   0.3849002   0.6804138  )
       235           Au  tau( 235) = (   0.6666667   0.6735753   0.6804138  )
       236           Au  tau( 236) = (   0.6666667   0.9622505   0.6804138  )
       237           Au  tau( 237) = (   0.8333333   0.0962250   0.6804138  )
       238           Au  tau( 238) = (   0.8333333   0.3849002   0.6804138  )
       239           Au  tau( 239) = (   0.8333333   0.6735753   0.6804138  )
       240           Au  tau( 240) = (   1.0000000   0.0962250   0.6804138  )
       241           Au  tau( 241) = (   1.0000000   0.3849002   0.6804138  )
       242           Au  tau( 242) = (   1.0000000   0.6735753   0.6804138  )
       243           Au  tau( 243) = (   0.0833333   0.5292377   0.6804138  )
       244           Au  tau( 244) = (   0.0833333   0.8179129   0.6804138  )
       245           Au  tau( 245) = (   0.0833333   1.1065880   0.6804138  )
       246           Au  tau( 246) = (   0.2500000   0.8179129   0.6804138  )
       247           Au  tau( 247) = (   0.2500000   1.1065880   0.6804138  )
       248           Au  tau( 248) = (   0.4166667   0.2405626   0.6804138  )
       249           Au  tau( 249) = (   0.4166667   0.5292377   0.6804138  )
       250           Au  tau( 250) = (   0.4166667   0.8179129   0.6804138  )
       251           Au  tau( 251) = (   0.4166667   1.1065880   0.6804138  )
       252           Au  tau( 252) = (   0.5833333   0.2405626   0.6804138  )
       253           Au  tau( 253) = (   0.5833333   0.5292377   0.6804138  )
       254           Au  tau( 254) = (   0.5833333   0.8179129   0.6804138  )
       255           Au  tau( 255) = (   0.7500000   0.5292377   0.6804138  )
       256           Au  tau( 256) = (   0.7500000   0.8179129   0.6804138  )
       257           Au  tau( 257) = (   0.9166667   0.2405626   0.6804138  )
       258           Au  tau( 258) = (   0.9166667   0.5292377   0.6804138  )
       259           Au  tau( 259) = (   0.9166667   0.8179129   0.6804138  )
       260           Au  tau( 260) = (   0.8333333   0.9622505   0.6804138  )
       261           Au  tau( 261) = (   1.0000000   0.9622505   0.6804138  )
       262           Au  tau( 262) = (   0.5833333   1.1065880   0.6804138  )
       263           Au  tau( 263) = (   0.7500000   1.1065880   0.6804138  )
       264           Au  tau( 264) = (   0.9166667   1.1065880   0.6804138  )
       265           Au  tau( 265) = (   0.0000000   0.0000000   0.8164966  )
       266           Au  tau( 266) = (   0.0000000   0.2886751   0.8164966  )
       267           Au  tau( 267) = (   0.1666667   0.0000000   0.8164966  )
       268           Au  tau( 268) = (   0.1666667   0.2886751   0.8164966  )
       269           Au  tau( 269) = (   0.3333333   0.0000000   0.8164966  )
       270           Au  tau( 270) = (   0.5000000   0.0000000   0.8164966  )
       271           Au  tau( 271) = (   0.6666667   0.0000000   0.8164966  )
       272           Au  tau( 272) = (   0.0833333   0.1443376   0.8164966  )
       273           Au  tau( 273) = (   0.2500000   0.1443376   0.8164966  )
       274           Au  tau( 274) = (   0.4166667   0.1443376   0.8164966  )
       275           Au  tau( 275) = (   0.0000000   0.8660254   0.8164966  )
       276           Au  tau( 276) = (   0.1666667   0.5773503   0.8164966  )
       277           Au  tau( 277) = (   0.1666667   0.8660254   0.8164966  )
       278           Au  tau( 278) = (   0.3333333   0.5773503   0.8164966  )
       279           Au  tau( 279) = (   0.3333333   0.8660254   0.8164966  )
       280           Au  tau( 280) = (   0.5000000   0.5773503   0.8164966  )
       281           Au  tau( 281) = (   0.5000000   0.8660254   0.8164966  )
       282           Au  tau( 282) = (   0.6666667   0.2886751   0.8164966  )
       283           Au  tau( 283) = (   0.6666667   0.5773503   0.8164966  )
       284           Au  tau( 284) = (   0.6666667   0.8660254   0.8164966  )
       285           Au  tau( 285) = (   0.8333333   0.2886751   0.8164966  )
       286           Au  tau( 286) = (   0.8333333   0.5773503   0.8164966  )
       287           Au  tau( 287) = (   0.8333333   0.8660254   0.8164966  )
       288           Au  tau( 288) = (   0.0833333   0.4330127   0.8164966  )
       289           Au  tau( 289) = (   0.0833333   0.7216879   0.8164966  )
       290           Au  tau( 290) = (   0.0833333   1.0103630   0.8164966  )
       291           Au  tau( 291) = (   0.2500000   0.4330127   0.8164966  )
       292           Au  tau( 292) = (   0.2500000   0.7216879   0.8164966  )
       293           Au  tau( 293) = (   0.2500000   1.0103630   0.8164966  )
       294           Au  tau( 294) = (   0.4166667   0.4330127   0.8164966  )
       295           Au  tau( 295) = (   0.4166667   0.7216879   0.8164966  )
       296           Au  tau( 296) = (   0.4166667   1.0103630   0.8164966  )
       297           Au  tau( 297) = (   0.5833333   0.1443376   0.8164966  )
       298           Au  tau( 298) = (   0.5833333   0.4330127   0.8164966  )
       299           Au  tau( 299) = (   0.5833333   0.7216879   0.8164966  )
       300           Au  tau( 300) = (   0.5833333   1.0103630   0.8164966  )
       301           Au  tau( 301) = (   0.7500000   0.1443376   0.8164966  )
       302           Au  tau( 302) = (   0.7500000   0.4330127   0.8164966  )
       303           Au  tau( 303) = (   0.7500000   0.7216879   0.8164966  )
       304           Au  tau( 304) = (   0.9166667   0.1443376   0.8164966  )
       305           Au  tau( 305) = (   0.9166667   0.4330127   0.8164966  )
       306           Au  tau( 306) = (   0.9166667   0.7216879   0.8164966  )
       307           Au  tau( 307) = (   0.0000000   0.5773503   0.8164966  )
       308           Au  tau( 308) = (   0.3333333   0.2886751   0.8164966  )
       309           Au  tau( 309) = (   0.5000000   0.2886751   0.8164966  )
       310           Au  tau( 310) = (   0.8333333   0.0000000   0.8164966  )
       311           Au  tau( 311) = (   0.7500000   1.0103630   0.8164966  )
       312           Au  tau( 312) = (   0.9166667   1.0103630   0.8164966  )
       313           Au  tau( 313) = (   0.0833333   0.6254628   0.9525793  )
       314           Au  tau( 314) = (   0.2500000   0.6254628   0.9525793  )
       315           Au  tau( 315) = (   0.4166667   0.6254628   0.9525793  )
       316           Au  tau( 316) = (   0.5833333   0.3367877   0.9525793  )
       317           Au  tau( 317) = (   0.7500000   0.3367877   0.9525793  )
       318           Au  tau( 318) = (   0.9166667   0.3367877   0.9525793  )
       319           Au  tau( 319) = (   0.1666667   0.7698003   0.9525793  )
       320           Au  tau( 320) = (   0.3333333   0.4811252   0.9525793  )
       321           Au  tau( 321) = (   0.5000000   0.4811252   0.9525793  )
       322           Au  tau( 322) = (   0.6666667   0.4811252   0.9525793  )
       323           Au  tau( 323) = (   0.8333333   0.1924501   0.9525793  )
       324           Au  tau( 324) = (   1.0000000   0.1924501   0.9525793  )
       325           Au  tau( 325) = (   0.0833333   0.0481125   0.9525793  )
       326           Au  tau( 326) = (   0.0833333   0.3367877   0.9525793  )
       327           Au  tau( 327) = (   0.0833333   0.9141379   0.9525793  )
       328           Au  tau( 328) = (   0.2500000   0.0481125   0.9525793  )
       329           Au  tau( 329) = (   0.2500000   0.3367877   0.9525793  )
       330           Au  tau( 330) = (   0.4166667   0.0481125   0.9525793  )
       331           Au  tau( 331) = (   0.4166667   0.3367877   0.9525793  )
       332           Au  tau( 332) = (   0.5833333   0.0481125   0.9525793  )
       333           Au  tau( 333) = (   0.5833333   0.6254628   0.9525793  )
       334           Au  tau( 334) = (   0.7500000   0.0481125   0.9525793  )
       335           Au  tau( 335) = (   0.9166667   0.0481125   0.9525793  )
       336           Au  tau( 336) = (   0.1666667   0.1924501   0.9525793  )
       337           Au  tau( 337) = (   0.1666667   0.4811252   0.9525793  )
       338           Au  tau( 338) = (   0.1666667   1.0584755   0.9525793  )
       339           Au  tau( 339) = (   0.3333333   0.1924501   0.9525793  )
       340           Au  tau( 340) = (   0.3333333   0.7698003   0.9525793  )
       341           Au  tau( 341) = (   0.5000000   0.1924501   0.9525793  )
       342           Au  tau( 342) = (   0.5000000   0.7698003   0.9525793  )
       343           Au  tau( 343) = (   0.6666667   0.1924501   0.9525793  )
       344           Au  tau( 344) = (   0.6666667   0.7698003   0.9525793  )
       345           Au  tau( 345) = (   0.8333333   0.4811252   0.9525793  )
       346           Au  tau( 346) = (   1.0000000   0.4811252   0.9525793  )
       347           Au  tau( 347) = (   0.2500000   0.9141379   0.9525793  )
       348           Au  tau( 348) = (   0.4166667   0.9141379   0.9525793  )
       349           Au  tau( 349) = (   0.5833333   0.9141379   0.9525793  )
       350           Au  tau( 350) = (   0.7500000   0.6254628   0.9525793  )
       351           Au  tau( 351) = (   0.7500000   0.9141379   0.9525793  )
       352           Au  tau( 352) = (   0.9166667   0.6254628   0.9525793  )
       353           Au  tau( 353) = (   0.9166667   0.9141379   0.9525793  )
       354           Au  tau( 354) = (   0.3333333   1.0584755   0.9525793  )
       355           Au  tau( 355) = (   0.5000000   1.0584755   0.9525793  )
       356           Au  tau( 356) = (   0.6666667   1.0584755   0.9525793  )
       357           Au  tau( 357) = (   0.8333333   0.7698003   0.9525793  )
       358           Au  tau( 358) = (   0.8333333   1.0584755   0.9525793  )
       359           Au  tau( 359) = (   1.0000000   0.7698003   0.9525793  )
       360           Au  tau( 360) = (   1.0000000   1.0584755   0.9525793  )
       361           Au  tau( 361) = (   0.1666667   0.6735753   1.0886621  )
       362           Au  tau( 362) = (   0.3333333   0.6735753   1.0886621  )
       363           Au  tau( 363) = (   0.5000000   0.3849002   1.0886621  )
       364           Au  tau( 364) = (   0.6666667   0.3849002   1.0886621  )
       365           Au  tau( 365) = (   0.8333333   0.3849002   1.0886621  )
       366           Au  tau( 366) = (   1.0000000   0.0962250   1.0886621  )
       367           Au  tau( 367) = (   0.0833333   0.8179129   1.0886621  )
       368           Au  tau( 368) = (   0.2500000   0.5292377   1.0886621  )
       369           Au  tau( 369) = (   0.4166667   0.5292377   1.0886621  )
       370           Au  tau( 370) = (   0.5833333   0.5292377   1.0886621  )
       371           Au  tau( 371) = (   0.7500000   0.2405626   1.0886621  )
       372           Au  tau( 372) = (   0.9166667   0.2405626   1.0886621  )
       373           Au  tau( 373) = (   0.1666667   0.0962250   1.0886621  )
       374           Au  tau( 374) = (   0.1666667   0.3849002   1.0886621  )
       375           Au  tau( 375) = (   0.1666667   0.9622505   1.0886621  )
       376           Au  tau( 376) = (   0.3333333   0.0962250   1.0886621  )
       377           Au  tau( 377) = (   0.3333333   0.3849002   1.0886621  )
       378           Au  tau( 378) = (   0.5000000   0.0962250   1.0886621  )
       379           Au  tau( 379) = (   0.5000000   0.6735753   1.0886621  )
       380           Au  tau( 380) = (   0.6666667   0.0962250   1.0886621  )
       381           Au  tau( 381) = (   0.6666667   0.6735753   1.0886621  )
       382           Au  tau( 382) = (   0.8333333   0.0962250   1.0886621  )
       383           Au  tau( 383) = (   1.0000000   0.3849002   1.0886621  )
       384           Au  tau( 384) = (   0.0833333   0.2405626   1.0886621  )
       385           Au  tau( 385) = (   0.0833333   0.5292377   1.0886621  )
       386           Au  tau( 386) = (   0.0833333   1.1065880   1.0886621  )
       387           Au  tau( 387) = (   0.2500000   0.2405626   1.0886621  )
       388           Au  tau( 388) = (   0.2500000   0.8179129   1.0886621  )
       389           Au  tau( 389) = (   0.4166667   0.2405626   1.0886621  )
       390           Au  tau( 390) = (   0.4166667   0.8179129   1.0886621  )
       391           Au  tau( 391) = (   0.5833333   0.2405626   1.0886621  )
       392           Au  tau( 392) = (   0.5833333   0.8179129   1.0886621  )
       393           Au  tau( 393) = (   0.7500000   0.5292377   1.0886621  )
       394           Au  tau( 394) = (   0.9166667   0.5292377   1.0886621  )
       395           Au  tau( 395) = (   0.3333333   0.9622505   1.0886621  )
       396           Au  tau( 396) = (   0.5000000   0.9622505   1.0886621  )
       397           Au  tau( 397) = (   0.6666667   0.9622505   1.0886621  )
       398           Au  tau( 398) = (   0.8333333   0.6735753   1.0886621  )
       399           Au  tau( 399) = (   0.8333333   0.9622505   1.0886621  )
       400           Au  tau( 400) = (   1.0000000   0.6735753   1.0886621  )
       401           Au  tau( 401) = (   1.0000000   0.9622505   1.0886621  )
       402           Au  tau( 402) = (   0.2500000   1.1065880   1.0886621  )
       403           Au  tau( 403) = (   0.4166667   1.1065880   1.0886621  )
       404           Au  tau( 404) = (   0.5833333   1.1065880   1.0886621  )
       405           Au  tau( 405) = (   0.7500000   0.8179129   1.0886621  )
       406           Au  tau( 406) = (   0.7500000   1.1065880   1.0886621  )
       407           Au  tau( 407) = (   0.9166667   0.8179129   1.0886621  )
       408           Au  tau( 408) = (   0.9166667   1.1065880   1.0886621  )
       409           Au  tau( 409) = (   0.0833333   0.7216879   1.2247449  )
       410           Au  tau( 410) = (   0.2500000   0.7216879   1.2247449  )
       411           Au  tau( 411) = (   0.4166667   0.4330127   1.2247449  )
       412           Au  tau( 412) = (   0.5833333   0.4330127   1.2247449  )
       413           Au  tau( 413) = (   0.7500000   0.4330127   1.2247449  )
       414           Au  tau( 414) = (   0.9166667   0.1443376   1.2247449  )
       415           Au  tau( 415) = (   0.0833333   0.1443376   1.2247449  )
       416           Au  tau( 416) = (   0.0833333   0.4330127   1.2247449  )
       417           Au  tau( 417) = (   0.0833333   1.0103630   1.2247449  )
       418           Au  tau( 418) = (   0.2500000   0.1443376   1.2247449  )
       419           Au  tau( 419) = (   0.2500000   0.4330127   1.2247449  )
       420           Au  tau( 420) = (   0.4166667   0.1443376   1.2247449  )
       421           Au  tau( 421) = (   0.4166667   0.7216879   1.2247449  )
       422           Au  tau( 422) = (   0.5833333   0.1443376   1.2247449  )
       423           Au  tau( 423) = (   0.5833333   0.7216879   1.2247449  )
       424           Au  tau( 424) = (   0.7500000   0.1443376   1.2247449  )
       425           Au  tau( 425) = (   0.9166667   0.4330127   1.2247449  )
       426           Au  tau( 426) = (   0.5833333   1.0103630   1.2247449  )
       427           Au  tau( 427) = (   0.7500000   1.0103630   1.2247449  )
       428           Au  tau( 428) = (   0.9166667   1.0103630   1.2247449  )
       429           Au  tau( 429) = (   0.2500000   1.0103630   1.2247449  )
       430           Au  tau( 430) = (   0.4166667   1.0103630   1.2247449  )
       431           Au  tau( 431) = (   0.7500000   0.7216879   1.2247449  )
       432           Au  tau( 432) = (   0.9166667   0.7216879   1.2247449  )

     number of k points=     4  Marzari-Vanderbilt smearing, width (Ry)=  0.0500
                       cart. coord. in units 2pi/alat
        k(    1) = (   0.1250000   0.1082532   0.0000000), wk =   0.5000000
        k(    2) = (   0.1250000   0.3247595   0.0000000), wk =   0.5000000
        k(    3) = (   0.3750000   0.1082532   0.0000000), wk =   0.5000000
        k(    4) = (   0.3750000   0.3247595   0.0000000), wk =   0.5000000

     Dense  grid:  8550627 G-vectors     FFT dimensions: ( 200, 240, 360)

     Smooth grid:  2643085 G-vectors     FFT dimensions: ( 135, 160, 243)

     Estimated max dynamical RAM per process >       5.77 GB

     Estimated total dynamical RAM >     553.56 GB

     Initial potential from superposition of free atoms

     starting charge 4746.98365, renormalised to 4752.00000

     negative rho (up, down):  1.152E+01 0.000E+00
     Starting wfcs are 3888 randomized atomic wfcs

     total cpu time spent up to now is       55.5 secs

     Self-consistent Calculation

     iteration #  1     ecut=    40.00 Ry     beta= 0.70
     Davidson diagonalization with overlap
     ethr =  1.00E-02,  avg # of iterations =  3.0

     Threshold (ethr) on eigenvalues was too large:
     Diagonalizing with lowered threshold

     Davidson diagonalization with overlap
     ethr =  3.34E-04,  avg # of iterations =  3.2

     negative rho (up, down):  1.095E+01 0.000E+00

     total cpu time spent up to now is      319.3 secs

     total energy              =  -44077.60686929 Ry
     estimated scf accuracy    <      18.95614160 Ry

     iteration #  2     ecut=    40.00 Ry     beta= 0.70
     Davidson diagonalization with overlap
     ethr =  3.99E-04,  avg # of iterations =  1.2

     negative rho (up, down):  1.157E+01 0.000E+00

     total cpu time spent up to now is      431.2 secs

     total energy              =  -44078.47281882 Ry
     estimated scf accuracy    <       8.44541915 Ry

     iteration #  3     ecut=    40.00 Ry     beta= 0.70
     Davidson diagonalization with overlap
     ethr =  1.78E-04,  avg # of iterations =  3.0

     negative rho (up, down):  1.215E+01 0.000E+00

     total cpu time spent up to now is      554.1 secs

     total energy              =  -44078.42265291 Ry
     estimated scf accuracy    <       4.94669930 Ry

     iteration #  4     ecut=    40.00 Ry     beta= 0.70
     Davidson diagonalization with overlap
     ethr =  1.04E-04,  avg # of iterations = 18.0

     negative rho (up, down):  1.214E+01 0.000E+00

     total cpu time spent up to now is      874.6 secs

     total energy              =  -44078.34588697 Ry
     estimated scf accuracy    <       2.42349189 Ry

     iteration #  5     ecut=    40.00 Ry     beta= 0.70
     Davidson diagonalization with overlap
     c_bands:  1 eigenvalues not converged
     ethr =  5.10E-05,  avg # of iterations = 18.2

     negative rho (up, down):  1.185E+01 0.000E+00

     total cpu time spent up to now is     1057.7 secs

     total energy              =  -44078.30791707 Ry
     estimated scf accuracy    <       1.48527942 Ry

     iteration #  6     ecut=    40.00 Ry     beta= 0.70
     Davidson diagonalization with overlap
     ethr =  3.13E-05,  avg # of iterations = 12.8

     negative rho (up, down):  1.186E+01 0.000E+00

     total cpu time spent up to now is     1233.7 secs

     total energy              =  -44078.27806636 Ry
     estimated scf accuracy    <       1.43297889 Ry

     iteration #  7     ecut=    40.00 Ry     beta= 0.70
     Davidson diagonalization with overlap
     ethr =  3.02E-05,  avg # of iterations =  4.0

     negative rho (up, down):  1.179E+01 0.000E+00

     total cpu time spent up to now is     1363.1 secs

     total energy              =  -44078.35081603 Ry
     estimated scf accuracy    <       1.48347123 Ry

     iteration #  8     ecut=    40.00 Ry     beta= 0.70
     Davidson diagonalization with overlap
     ethr =  3.02E-05,  avg # of iterations =  2.2

     negative rho (up, down):  1.176E+01 0.000E+00

     total cpu time spent up to now is     1489.9 secs

     total energy              =  -44078.44819850 Ry
     estimated scf accuracy    <       1.39610146 Ry

     iteration #  9     ecut=    40.00 Ry     beta= 0.70
     Davidson diagonalization with overlap
     ethr =  2.94E-05,  avg # of iterations =  3.0

     negative rho (up, down):  1.218E+01 0.000E+00

     total cpu time spent up to now is     1614.5 secs

     total energy              =  -44077.69858234 Ry
     estimated scf accuracy    <       4.35724936 Ry

     iteration # 10     ecut=    40.00 Ry     beta= 0.70
     Davidson diagonalization with overlap
     c_bands:  1 eigenvalues not converged
     ethr =  2.94E-05,  avg # of iterations = 19.5

     negative rho (up, down):  1.246E+01 0.000E+00

     total cpu time spent up to now is     1903.4 secs

     total energy              =  -44078.83318546 Ry
     estimated scf accuracy    <       6.14743251 Ry

     iteration # 11     ecut=    40.00 Ry     beta= 0.70
     Davidson diagonalization with overlap
     ethr =  2.94E-05,  avg # of iterations =  3.5

     negative rho (up, down):  1.253E+01 0.000E+00

     total cpu time spent up to now is     2032.3 secs

     total energy              =  -44078.67931834 Ry
     estimated scf accuracy    <      10.39902558 Ry

     iteration # 12     ecut=    40.00 Ry     beta= 0.70
     Davidson diagonalization with overlap
     ethr =  2.94E-05,  avg # of iterations =  1.5

     negative rho (up, down):  1.253E+01 0.000E+00

     total cpu time spent up to now is     2145.3 secs

     total energy              =  -44078.61605795 Ry
     estimated scf accuracy    <       7.42542732 Ry

     iteration # 13     ecut=    40.00 Ry     beta= 0.70
     Davidson diagonalization with overlap
     ethr =  2.94E-05,  avg # of iterations =  1.0

     negative rho (up, down):  1.236E+01 0.000E+00

     total cpu time spent up to now is     2243.8 secs

     total energy              =  -44077.93857668 Ry
     estimated scf accuracy    <       6.39683041 Ry

     iteration # 14     ecut=    40.00 Ry     beta= 0.70
     Davidson diagonalization with overlap
     ethr =  2.94E-05,  avg # of iterations =  4.8

     negative rho (up, down):  1.249E+01 0.000E+00

     total cpu time spent up to now is     2383.7 secs

     total energy              =  -44078.17021649 Ry
     estimated scf accuracy    <       0.31225826 Ry

     iteration # 15     ecut=    40.00 Ry     beta= 0.70
     Davidson diagonalization with overlap
     ethr =  6.57E-06,  avg # of iterations = 19.0

     negative rho (up, down):  1.211E+01 0.000E+00

     total cpu time spent up to now is     2584.7 secs

     total energy              =  -44078.06194380 Ry
     estimated scf accuracy    <       0.64667205 Ry

     iteration # 16     ecut=    40.00 Ry     beta= 0.70
     Davidson diagonalization with overlap
     c_bands:  1 eigenvalues not converged
     ethr =  6.57E-06,  avg # of iterations = 16.0

     negative rho (up, down):  1.195E+01 0.000E+00

     total cpu time spent up to now is     2943.5 secs

     total energy              =  -44078.20753666 Ry
     estimated scf accuracy    <       0.38657507 Ry

     iteration # 17     ecut=    40.00 Ry     beta= 0.70
     Davidson diagonalization with overlap
     ethr =  6.57E-06,  avg # of iterations =  2.0

     negative rho (up, down):  1.201E+01 0.000E+00

     total cpu time spent up to now is     3114.3 secs

     total energy              =  -44078.16134828 Ry
     estimated scf accuracy    <       0.54909769 Ry

     iteration # 18     ecut=    40.00 Ry     beta= 0.70
     Davidson diagonalization with overlap
     ethr =  6.57E-06,  avg # of iterations =  4.8

     negative rho (up, down):  1.190E+01 0.000E+00

     total cpu time spent up to now is     3329.6 secs

     total energy              =  -44078.13442040 Ry
     estimated scf accuracy    <       0.30777380 Ry

     iteration # 19     ecut=    40.00 Ry     beta= 0.70
     Davidson diagonalization with overlap
     ethr =  6.48E-06,  avg # of iterations =  8.0

     negative rho (up, down):  1.183E+01 0.000E+00

     total cpu time spent up to now is     3561.5 secs

     total energy              =  -44078.14060972 Ry
     estimated scf accuracy    <       0.03903192 Ry

     iteration # 20     ecut=    40.00 Ry     beta= 0.70
     Davidson diagonalization with overlap
     ethr =  8.21E-07,  avg # of iterations = 13.5

     negative rho (up, down):  1.177E+01 0.000E+00

     total cpu time spent up to now is     3747.6 secs

     total energy              =  -44078.13919616 Ry
     estimated scf accuracy    <       0.01540396 Ry

     iteration # 21     ecut=    40.00 Ry     beta= 0.70
     Davidson diagonalization with overlap
     ethr =  3.24E-07,  avg # of iterations = 10.0

     negative rho (up, down):  1.176E+01 0.000E+00

     total cpu time spent up to now is     3911.3 secs

     total energy              =  -44078.13987660 Ry
     estimated scf accuracy    <       0.00077892 Ry

     iteration # 22     ecut=    40.00 Ry     beta= 0.70
     Davidson diagonalization with overlap
     ethr =  1.64E-08,  avg # of iterations =  5.5

     negative rho (up, down):  1.176E+01 0.000E+00

     total cpu time spent up to now is     4061.4 secs

     total energy              =  -44078.14004503 Ry
     estimated scf accuracy    <       0.00070652 Ry

     iteration # 23     ecut=    40.00 Ry     beta= 0.70
     Davidson diagonalization with overlap
     ethr =  1.49E-08,  avg # of iterations =  5.2

     negative rho (up, down):  1.175E+01 0.000E+00

     total cpu time spent up to now is     4196.8 secs

     total energy              =  -44078.14015720 Ry
     estimated scf accuracy    <       0.00031074 Ry

     iteration # 24     ecut=    40.00 Ry     beta= 0.70
     Davidson diagonalization with overlap
     ethr =  6.54E-09,  avg # of iterations =  2.2

     negative rho (up, down):  1.175E+01 0.000E+00

     total cpu time spent up to now is     4313.2 secs

     total energy              =  -44078.14019171 Ry
     estimated scf accuracy    <       0.00000814 Ry

     iteration # 25     ecut=    40.00 Ry     beta= 0.70
     Davidson diagonalization with overlap
     ethr =  1.71E-10,  avg # of iterations =  4.2

     negative rho (up, down):  1.175E+01 0.000E+00

     total cpu time spent up to now is     4487.2 secs

     total energy              =  -44078.14019114 Ry
     estimated scf accuracy    <       0.00006071 Ry

     iteration # 26     ecut=    40.00 Ry     beta= 0.70
     Davidson diagonalization with overlap
     ethr =  1.71E-10,  avg # of iterations =  3.0

     negative rho (up, down):  1.175E+01 0.000E+00

     total cpu time spent up to now is     4620.4 secs

     total energy              =  -44078.14019500 Ry
     estimated scf accuracy    <       0.00000205 Ry

     iteration # 27     ecut=    40.00 Ry     beta= 0.70
     Davidson diagonalization with overlap
     ethr =  4.32E-11,  avg # of iterations =  3.0

     negative rho (up, down):  1.175E+01 0.000E+00

     total cpu time spent up to now is     4750.0 secs

     End of self-consistent calculation

          k = 0.1250 0.1083 0.0000 (330335 PWs)   bands (ev):

    -0.8188  -0.4829  -0.4771  -0.3735  -0.2670  -0.1476  -0.0899  -0.0574
    -0.0404   0.0197   0.0625   0.1470   0.2074   0.2349   0.2654   0.3409
     0.4000   0.4459   0.4615   0.5180   0.5426   0.5958   0.6019   0.7000
     0.7093   0.7363   0.8845   0.9104   0.9150   0.9196   0.9695   0.9863
     1.0149   1.0407   1.1034   1.1195   1.1343   1.1660   1.1713   1.1989
     1.2422   1.2494   1.2678   1.2858   1.2891   1.2923   1.3017   1.4022
     1.4294   1.4316   1.4381   1.4413   1.4555   1.4560   1.4589   1.4808
     1.4986   1.5080   1.5203   1.5207   1.5240   1.5360   1.5599   1.5634
     1.5777   1.6018   1.6080   1.6095   1.6122   1.6137   1.6138   1.6226
     1.6422   1.6515   1.6537   1.6652   1.6868   1.6950   1.7074   1.7235
     1.7351   1.7506   1.7582   1.7593   1.7598   1.7651   1.7713   1.7838
     1.7970   1.8125   1.8263   1.8318   1.8395   1.8424   1.8448   1.8483
     1.8495   1.8499   1.8508   1.8627   1.8638   1.8662   1.8677   1.8882
     1.9049   1.9049   1.9088   1.9120   1.9256   1.9272   1.9314   1.9407
     1.9471   1.9554   1.9556   1.9567   1.9671   1.9676   1.9799   1.9819
     1.9848   1.9913   1.9984   2.0111   2.0127   2.0157   2.0170   2.0209
     2.0262   2.0276   2.0320   2.0354   2.0410   2.0439   2.0449   2.0451
     2.0512   2.0611   2.0651   2.0677   2.0757   2.0812   2.0932   2.0974
     2.1004   2.1020   2.1184   2.1191   2.1196   2.1228   2.1228   2.1233
     2.1244   2.1249   2.1273   2.1289   2.1373   2.1405   2.1439   2.1500
     2.1505   2.1518   2.1551   2.1568   2.1583   2.1602   2.1638   2.1650
     2.1658   2.1760   2.1784   2.1820   2.1824   2.1954   2.2028   2.2039
     2.2098   2.2116   2.2126   2.2155   2.2184   2.2189   2.2189   2.2193
     2.2229   2.2262   2.2272   2.2322   2.2375   2.2409   2.2431   2.2445
     2.2475   2.2505   2.2575   2.2596   2.2609   2.2631   2.2682   2.2760
     2.2901   2.2916   2.2980   2.2987   2.2995   2.3020   2.3068   2.3076
     2.3082   2.3094   2.3104   2.3111   2.3120   2.3153   2.3197   2.3205
     2.3246   2.3252   2.3259   2.3278   2.3280   2.3331   2.3341   2.3432
     2.3462   2.3510   2.3530   2.3550   2.3594   2.3630   2.3666   2.3718
     2.3724   2.3752   2.3856   2.3861   2.3879   2.3894   2.3902   2.3921
     2.3938   2.3988   2.4020   2.4121   2.4124   2.4126   2.4154   2.4157
     2.4254   2.4261   2.4305   2.4337   2.4415   2.4430   2.4439   2.4459
     2.4465   2.4480   2.4493   2.4496   2.4517   2.4518   2.4556   2.4602
     2.4648   2.4725   2.4736   2.4748   2.4762   2.4819   2.4847   2.4848
     2.4852   2.4886   2.4909   2.4949   2.4979   2.5034   2.5096   2.5112
     2.5115   2.5120   2.5180   2.5189   2.5196   2.5228   2.5229   2.5244
     2.5339   2.5365   2.5376   2.5411   2.5437   2.5455   2.5468   2.5510
     2.5537   2.5566   2.5718   2.5755   2.5776   2.5777   2.5780   2.5810
     2.5816   2.5819   2.5844   2.5847   2.5869   2.5933   2.5944   2.5948
     2.5959   2.5965   2.6015   2.6040   2.6055   2.6112   2.6173   2.6260
     2.6261   2.6281   2.6323   2.6326   2.6352   2.6358   2.6374   2.6389
     2.6441   2.6519   2.6609   2.6639   2.6650   2.6665   2.6737   2.6750
     2.6756   2.6798   2.6813   2.6822   2.6889   2.6900   2.6912   2.6955
     2.6966   2.7008   2.7020   2.7068   2.7136   2.7147   2.7148   2.7203
     2.7225   2.7251   2.7254   2.7264   2.7268   2.7295   2.7344   2.7364
     2.7396   2.7407   2.7408   2.7438   2.7440   2.7521   2.7539   2.7583
     2.7642   2.7669   2.7691   2.7696   2.7796   2.7798   2.7817   2.7825
     2.7826   2.7830   2.7863   2.7880   2.7884   2.7887   2.7949   2.7986
     2.7996   2.8034   2.8110   2.8133   2.8146   2.8165   2.8171   2.8183
     2.8209   2.8269   2.8283   2.8372   2.8397   2.8469   2.8477   2.8503
     2.8515   2.8532   2.8534   2.8594   2.8605   2.8607   2.8607   2.8624
     2.8695   2.8749   2.8824   2.8936   2.8956   2.8967   2.8985   2.9016
     2.9019   2.9037   2.9039   2.9052   2.9087   2.9138   2.9141   2.9149
     2.9246   2.9268   2.9302   2.9310   2.9328   2.9337   2.9353   2.9356
     2.9443   2.9499   2.9628   2.9643   2.9654   2.9658   2.9681   2.9718
     2.9723   2.9762   2.9772   2.9980   3.0077   3.0095   3.0120   3.0128
     3.0159   3.0275   3.0278   3.0356   3.0374   3.0375   3.0388   3.0404
     3.0420   3.0541   3.0543   3.0618   3.0640   3.0680   3.0717   3.0795
     3.0803   3.0819   3.0848   3.0849   3.0917   3.0970   3.0973   3.0974
     3.0984   3.0988   3.1047   3.1088   3.1136   3.1175   3.1234   3.1258
     3.1265   3.1284   3.1319   3.1333   3.1405   3.1447   3.1531   3.1567
     3.1596   3.1618   3.1629   3.1732   3.1733   3.1753   3.1754   3.1754
     3.1790   3.1791   3.1825   3.1829   3.1849   3.1867   3.1891   3.1904
     3.1906   3.1933   3.1950   3.1974   3.1997   3.2001   3.2087   3.2208
     3.2232   3.2264   3.2301   3.2324   3.2355   3.2395   3.2399   3.2400
     3.2408   3.2414   3.2432   3.2519   3.2525   3.2590   3.2590   3.2594
     3.2606   3.2678   3.2683   3.2785   3.2802   3.2852   3.2881   3.2896
     3.2897   3.2898   3.2926   3.2957   3.2975   3.3001   3.3033   3.3050
     3.3074   3.3107   3.3131   3.3193   3.3196   3.3214   3.3250   3.3256
     3.3263   3.3264   3.3279   3.3280   3.3283   3.3301   3.3377   3.3384
     3.3409   3.3421   3.3437   3.3463   3.3505   3.3513   3.3523   3.3543
     3.3549   3.3552   3.3562   3.3582   3.3589   3.3633   3.3732   3.3746
     3.3777   3.3785   3.3814   3.3818   3.3855   3.3910   3.3917   3.3970
     3.3970   3.3982   3.3986   3.4030   3.4036   3.4154   3.4191   3.4211
     3.4249   3.4266   3.4279   3.4284   3.4356   3.4411   3.4415   3.4426
     3.4496   3.4496   3.4568   3.4568   3.4592   3.4594   3.4610   3.4653
     3.4664   3.4667   3.4677   3.4709   3.4727   3.4751   3.4752   3.4765
     3.4818   3.4847   3.4860   3.4861   3.4877   3.4910   3.4986   3.4995
     3.5002   3.5026   3.5041   3.5060   3.5082   3.5090   3.5111   3.5113
     3.5144   3.5156   3.5160   3.5166   3.5181   3.5204   3.5275   3.5291
     3.5313   3.5322   3.5352   3.5361   3.5459   3.5474   3.5476   3.5530
     3.5604   3.5623   3.5629   3.5682   3.5717   3.5717   3.5744   3.5765
     3.5782   3.5821   3.5875   3.5877   3.5884   3.5918   3.5929   3.5952
     3.5959   3.5978   3.5989   3.6011   3.6034   3.6049   3.6071   3.6075
     3.6080   3.6101   3.6172   3.6173   3.6214   3.6215   3.6229   3.6248
     3.6269   3.6327   3.6346   3.6356   3.6356   3.6420   3.6442   3.6480
     3.6498   3.6502   3.6506   3.6590   3.6596   3.6638   3.6663   3.6679
     3.6685   3.6725   3.6763   3.6764   3.6767   3.6808   3.6826   3.6885
     3.6893   3.6894   3.6900   3.6918   3.6955   3.6964   3.7014   3.7061
     3.7086   3.7090   3.7125   3.7166   3.7173   3.7190   3.7199   3.7238
     3.7250   3.7293   3.7307   3.7367   3.7379   3.7457   3.7527   3.7537
     3.7542   3.7562   3.7591   3.7602   3.7659   3.7690   3.7698   3.7731
     3.7777   3.7783   3.7788   3.7795   3.7808   3.7830   3.7834   3.7839
     3.7844   3.7912   3.7916   3.7948   3.8070   3.8169   3.8186   3.8197
     3.8211   3.8231   3.8248   3.8262   3.8277   3.8288   3.8333   3.8338
     3.8357   3.8403   3.8445   3.8447   3.8461   3.8464   3.8524   3.8525
     3.8528   3.8535   3.8551   3.8561   3.8568   3.8591   3.8601   3.8631
     3.8631   3.8658   3.8658   3.8664   3.8666   3.8668   3.8685   3.8690
     3.8728   3.8755   3.8785   3.8800   3.8857   3.8870   3.8870   3.8892
     3.8921   3.8935   3.8955   3.8959   3.8974   3.9020   3.9059   3.9063
     3.9077   3.9088   3.9114   3.9143   3.9145   3.9156   3.9160   3.9229
     3.9236   3.9270   3.9287   3.9288   3.9305   3.9308   3.9331   3.9331
     3.9334   3.9342   3.9367   3.9397   3.9458   3.9474   3.9474   3.9493
     3.9494   3.9540   3.9541   3.9542   3.9566   3.9614   3.9649   3.9669
     3.9691   3.9693   3.9702   3.9709   3.9722   3.9722   3.9757   3.9759
     3.9763   3.9806   3.9820   3.9826   3.9837   3.9879   3.9900   3.9905
     3.9917   3.9959   4.0013   4.0018   4.0029   4.0030   4.0059   4.0077
     4.0081   4.0081   4.0089   4.0112   4.0174   4.0188   4.0254   4.0261
     4.0274   4.0335   4.0356   4.0374   4.0374   4.0378   4.0437   4.0442
     4.0451   4.0470   4.0475   4.0488   4.0506   4.0511   4.0520   4.0523
     4.0524   4.0556   4.0588   4.0600   4.0611   4.0647   4.0663   4.0696
     4.0696   4.0710   4.0712   4.0758   4.0770   4.0781   4.0784   4.0786
     4.0788   4.0798   4.0807   4.0832   4.0846   4.0850   4.0856   4.0861
     4.0871   4.0887   4.0912   4.0927   4.0957   4.0986   4.0996   4.1012
     4.1019   4.1046   4.1068   4.1090   4.1093   4.1097   4.1106   4.1118
     4.1123   4.1125   4.1142   4.1145   4.1208   4.1246   4.1258   4.1265
     4.1272   4.1274   4.1278   4.1297   4.1318   4.1333   4.1342   4.1342
     4.1400   4.1418   4.1428   4.1441   4.1452   4.1468   4.1477   4.1483
     4.1490   4.1526   4.1528   4.1533   4.1553   4.1609   4.1624   4.1628
     4.1638   4.1644   4.1648   4.1675   4.1677   4.1683   4.1739   4.1746
     4.1751   4.1763   4.1800   4.1805   4.1811   4.1816   4.1819   4.1834
     4.1838   4.1853   4.1871   4.1897   4.1899   4.1908   4.1909   4.1924
     4.1929   4.1946   4.1965   4.1973   4.1974   4.2010   4.2020   4.2039
     4.2059   4.2070   4.2081   4.2089   4.2098   4.2102   4.2116   4.2136
     4.2152   4.2173   4.2192   4.2196   4.2213   4.2217   4.2226   4.2230
     4.2253   4.2269   4.2320   4.2333   4.2344   4.2358   4.2381   4.2432
     4.2435   4.2478   4.2508   4.2511   4.2517   4.2553   4.2565   4.2576
     4.2580   4.2582   4.2582   4.2611   4.2626   4.2637   4.2654   4.2663
     4.2671   4.2755   4.2760   4.2767   4.2774   4.2795   4.2807   4.2811
     4.2815   4.2846   4.2896   4.2906   4.2941   4.2949   4.2955   4.2962
     4.2999   4.3005   4.3013   4.3023   4.3034   4.3088   4.3098   4.3107
     4.3129   4.3140   4.3140   4.3172   4.3214   4.3241   4.3243   4.3271
     4.3273   4.3276   4.3313   4.3334   4.3413   4.3420   4.3424   4.3461
     4.3467   4.3473   4.3473   4.3497   4.3543   4.3553   4.3573   4.3575
     4.3605   4.3637   4.3647   4.3654   4.3660   4.3674   4.3684   4.3687
     4.3692   4.3703   4.3707   4.3736   4.3746   4.3748   4.3757   4.3786
     4.3792   4.3800   4.3820   4.3827   4.3836   4.3840   4.3843   4.3899
     4.3922   4.3925   4.3986   4.4031   4.4053   4.4062   4.4068   4.4083
     4.4100   4.4108   4.4140   4.4163   4.4275   4.4294   4.4318   4.4336
     4.4376   4.4396   4.4422   4.4428   4.4440   4.4490   4.4512   4.4515
     4.4525   4.4534   4.4549   4.4559   4.4562   4.4568   4.4569   4.4605
     4.4629   4.4635   4.4684   4.4696   4.4753   4.4771   4.4779   4.4788
     4.4796   4.4848   4.4887   4.4900   4.4906   4.4909   4.4926   4.4935
     4.4940   4.4979   4.4988   4.4994   4.5000   4.5013   4.5086   4.5117
     4.5126   4.5139   4.5141   4.5168   4.5177   4.5183   4.5262   4.5271
     4.5282   4.5283   4.5308   4.5313   4.5368   4.5398   4.5421   4.5451
     4.5454   4.5467   4.5504   4.5511   4.5597   4.5606   4.5614   4.5623
     4.5632   4.5650   4.5663   4.5695   4.5723   4.5727   4.5735   4.5867
     4.5877   4.5884   4.5892   4.5948   4.5991   4.5994   4.6007   4.6022
     4.6024   4.6051   4.6056   4.6068   4.6077   4.6095   4.6143   4.6159
     4.6198   4.6201   4.6215   4.6222   4.6264   4.6288   4.6346   4.6351
     4.6363   4.6363   4.6390   4.6429   4.6435   4.6441   4.6536   4.6554
     4.6564   4.6592   4.6595   4.6602   4.6606   4.6630   4.6636   4.6669
     4.6670   4.6715   4.6728   4.6730   4.6737   4.6739   4.6774   4.6800
     4.6804   4.6829   4.6835   4.6903   4.6905   4.6905   4.6921   4.6935
     4.6938   4.6987   4.6996   4.7034   4.7039   4.7068   4.7099   4.7124
     4.7125   4.7164   4.7173   4.7181   4.7196   4.7241   4.7270   4.7281
     4.7296   4.7315   4.7361   4.7374   4.7409   4.7432   4.7440   4.7510
     4.7514   4.7561   4.7575   4.7576   4.7590   4.7592   4.7593   4.7635
     4.7640   4.7651   4.7662   4.7727   4.7761   4.7789   4.7865   4.7871
     4.7916   4.7926   4.7940   4.7973   4.7984   4.8016   4.8023   4.8162
     4.8191   4.8217   4.8232   4.8240   4.8311   4.8338   4.8359   4.8359
     4.8362   4.8387   4.8454   4.8458   4.8534   4.8558   4.8573   4.8589
     4.8604   4.8605   4.8623   4.8631   4.8647   4.8654   4.8684   4.8789
     4.8793   4.8799   4.8869   4.8897   4.8913   4.8967   4.8972   4.9022
     4.9050   4.9057   4.9061   4.9066   4.9074   4.9110   4.9115   4.9117
     4.9127   4.9152   4.9159   4.9193   4.9270   4.9276   4.9287   4.9320
     4.9321   4.9361   4.9377   4.9388   4.9426   4.9433   4.9445   4.9451
     4.9466   4.9483   4.9511   4.9514   4.9516   4.9531   4.9586   4.9591
     4.9638   4.9645   4.9648   4.9664   4.9687   4.9699   4.9745   4.9796
     4.9806   4.9813   4.9874   4.9901   4.9916   5.0028   5.0043   5.0043
     5.0048   5.0050   5.0055   5.0067   5.0101   5.0102   5.0105   5.0116
     5.0118   5.0136   5.0192   5.0220   5.0243   5.0244   5.0254   5.0284
     5.0318   5.0318   5.0321   5.0325   5.0352   5.0357   5.0377   5.0454
     5.0494   5.0495   5.0496   5.0508   5.0555   5.0568   5.0571   5.0577
     5.0597   5.0601   5.0627   5.0628   5.0648   5.0663   5.0669   5.0710
     5.0715   5.0785   5.0799   5.0835   5.0865   5.0892   5.0927   5.0955
     5.1020   5.1033   5.1052   5.1060   5.1088   5.1110   5.1117   5.1118
     5.1194   5.1195   5.1233   5.1252   5.1328   5.1355   5.1369   5.1391
     5.1392   5.1396   5.1415   5.1420   5.1442   5.1503   5.1510   5.1530
     5.1568   5.1597   5.1616   5.1623   5.1648   5.1692   5.1700   5.1714
     5.1727   5.1733   5.1759   5.1768   5.1807   5.1813   5.1813   5.1818
     5.1820   5.1832   5.1865   5.1892   5.1912   5.1921   5.1980   5.1990
     5.2018   5.2021   5.2060   5.2071   5.2079   5.2104   5.2108   5.2140
     5.2148   5.2172   5.2202   5.2203   5.2244   5.2254   5.2255   5.2265
     5.2280   5.2290   5.2354   5.2372   5.2401   5.2425   5.2437   5.2456
     5.2474   5.2513   5.2523   5.2547   5.2565   5.2574   5.2614   5.2618
     5.2652   5.2659   5.2680   5.2689   5.2695   5.2710   5.2712   5.2714
     5.2723   5.2726   5.2745   5.2784   5.2819   5.2823   5.2831   5.2882
     5.2889   5.2936   5.2990   5.2995   5.3009   5.3042   5.3088   5.3088
     5.3115   5.3134   5.3142   5.3150   5.3181   5.3209   5.3211   5.3275
     5.3277   5.3280   5.3284   5.3342   5.3343   5.3348   5.3353   5.3383
     5.3389   5.3404   5.3407   5.3428   5.3430   5.3431   5.3463   5.3477
     5.3505   5.3527   5.3544   5.3571   5.3590   5.3615   5.3639   5.3658
     5.3687   5.3688   5.3690   5.3702   5.3716   5.3721   5.3735   5.3736
     5.3778   5.3785   5.3815   5.3846   5.3857   5.3861   5.3893   5.3909
     5.3926   5.3946   5.3955   5.3980   5.3986   5.3990   5.4026   5.4043
     5.4064   5.4156   5.4171   5.4231   5.4251   5.4264   5.4280   5.4290
     5.4373   5.4378   5.4380   5.4398   5.4403   5.4405   5.4412   5.4441
     5.4526   5.4549   5.4567   5.4570   5.4595   5.4623   5.4657   5.4689
     5.4691   5.4750   5.4755   5.4764   5.4787   5.4791   5.4794   5.4872
     5.4877   5.4965   5.5011   5.5021   5.5047   5.5065   5.5069   5.5073
     5.5080   5.5098   5.5122   5.5122   5.5155   5.5178   5.5182   5.5182
     5.5187   5.5195   5.5216   5.5218   5.5257   5.5265   5.5330   5.5361
     5.5367   5.5378   5.5391   5.5396   5.5397   5.5460   5.5464   5.5466
     5.5467   5.5485   5.5491   5.5494   5.5532   5.5534   5.5548   5.5549
     5.5555   5.5592   5.5596   5.5602   5.5682   5.5697   5.5706   5.5754
     5.5768   5.5801   5.5816   5.5842   5.5881   5.5909   5.5926   5.5936
     5.5943   5.5945   5.5950   5.5977   5.5981   5.5992   5.6000   5.6019
     5.6032   5.6053   5.6110   5.6140   5.6206   5.6230   5.6237   5.6285
     5.6299   5.6350   5.6402   5.6422   5.6431   5.6448   5.6450   5.6452
     5.6458   5.6505   5.6517   5.6547   5.6582   5.6597   5.6598   5.6664
     5.6715   5.6723   5.6745   5.6752   5.6763   5.6773   5.6800   5.6801
     5.6817   5.6830   5.6834   5.6848   5.6864   5.6944   5.6946   5.6975
     5.6983   5.7033   5.7067   5.7069   5.7108   5.7115   5.7137   5.7156
     5.7184   5.7222   5.7235   5.7247   5.7248   5.7255   5.7260   5.7278
     5.7279   5.7296   5.7367   5.7377   5.7377   5.7420   5.7425   5.7427
     5.7479   5.7563   5.7596   5.7615   5.7638   5.7678   5.7703   5.7708
     5.7711   5.7749   5.7772   5.7779   5.7807   5.7828   5.7883   5.7900
     5.7907   5.7921   5.7923   5.7943   5.7988   5.7989   5.7990   5.7997
     5.8064   5.8077   5.8078   5.8079   5.8160   5.8171   5.8211   5.8217
     5.8221   5.8267   5.8301   5.8341   5.8346   5.8369   5.8370   5.8383
     5.8394   5.8414   5.8421   5.8436   5.8442   5.8538   5.8569   5.8579
     5.8593   5.8593   5.8594   5.8594   5.8606   5.8621   5.8642   5.8669
     5.8684   5.8696   5.8760   5.8796   5.8854   5.8856   5.8912   5.8932
     5.8941   5.8942   5.8958   5.8991   5.9034   5.9036   5.9073   5.9111
     5.9133   5.9161   5.9162   5.9175   5.9180   5.9200   5.9202   5.9220
     5.9245   5.9248   5.9253   5.9271   5.9287   5.9291   5.9303   5.9306
     5.9314   5.9352   5.9356   5.9364   5.9421   5.9464   5.9467   5.9507
     5.9533   5.9533   5.9545   5.9550   5.9559   5.9588   5.9606   5.9662
     5.9702   5.9717   5.9739   5.9744   5.9769   5.9772   5.9787   5.9795
     5.9798   5.9799   5.9827   5.9878   5.9894   5.9897   5.9903   5.9916
     5.9981   5.9992   6.0004   6.0044   6.0089   6.0111   6.0164   6.0167
     6.0236   6.0243   6.0274   6.0291   6.0307   6.0338   6.0348   6.0363
     6.0368   6.0392   6.0395   6.0442   6.0445   6.0468   6.0491   6.0493
     6.0498   6.0503   6.0512   6.0557   6.0566   6.0568   6.0575   6.0575
     6.0586   6.0587   6.0602   6.0675   6.0688   6.0722   6.0736   6.0738
     6.0744   6.0746   6.0777   6.0779   6.0789   6.0869   6.0871   6.0879
     6.0894   6.0895   6.0899   6.0929   6.0943   6.0965   6.0972   6.0972
     6.1003   6.1007   6.1038   6.1051   6.1060   6.1067   6.1070   6.1087
     6.1099   6.1121   6.1121   6.1142   6.1164   6.1171   6.1173   6.1195
     6.1207   6.1214   6.1224   6.1326   6.1365   6.1380   6.1399   6.1408
     6.1424   6.1456   6.1459   6.1460   6.1474   6.1477   6.1478   6.1497
     6.1497   6.1519   6.1538   6.1539   6.1548   6.1571   6.1610   6.1616
     6.1616   6.1624   6.1646   6.1651   6.1669   6.1677   6.1684   6.1692
     6.1698   6.1703   6.1722   6.1724   6.1740   6.1786   6.1807   6.1811
     6.1831   6.1833   6.1846   6.1849   6.1859   6.1861   6.1876   6.1882
     6.1883   6.1893   6.1895   6.1918   6.1974   6.1986   6.1988   6.2017
     6.2021   6.2029   6.2052   6.2054   6.2062   6.2083   6.2085   6.2094
     6.2127   6.2128   6.2153   6.2167   6.2168   6.2178   6.2193   6.2200
     6.2225   6.2229   6.2231   6.2231   6.2271   6.2284   6.2292   6.2314
     6.2326   6.2327   6.2331   6.2337   6.2338   6.2347   6.2352   6.2358
     6.2374   6.2375   6.2378   6.2393   6.2399   6.2400   6.2421   6.2427
     6.2451   6.2473   6.2502   6.2506   6.2508   6.2521   6.2533   6.2541
     6.2556   6.2563   6.2599   6.2601   6.2607   6.2612   6.2627   6.2644
     6.2664   6.2672   6.2680   6.2680   6.2693   6.2715   6.2727   6.2728
     6.2737   6.2752   6.2755   6.2767   6.2792   6.2809   6.2833   6.2837
     6.2840   6.2843   6.2908   6.2919   6.2940   6.2978   6.2988   6.3030
     6.3068   6.3076   6.3104   6.3147   6.3167   6.3181   6.3191   6.3194
     6.3199   6.3212   6.3262   6.3263   6.3294   6.3300   6.3301   6.3302
     6.3308   6.3312   6.3323   6.3323   6.3357   6.3362   6.3367   6.3381
     6.3417   6.3430   6.3466   6.3469   6.3479   6.3490   6.3509   6.3509
     6.3524   6.3533   6.3563   6.3601   6.3632   6.3644   6.3646   6.3679
     6.3680   6.3708   6.3722   6.3739   6.3744   6.3750   6.3755   6.3756
     6.3775   6.3803   6.3804   6.3809   6.3843   6.3869   6.3925   6.3942
     6.3975   6.3990   6.3996   6.4000   6.4002   6.4005   6.4058   6.4061
     6.4082   6.4093   6.4099   6.4122   6.4130   6.4141   6.4254   6.4266
     6.4294   6.4315   6.4325   6.4334   6.4346   6.4355   6.4360   6.4385
     6.4419   6.4422   6.4424   6.4435   6.4479   6.4510   6.4520   6.4536
     6.4555   6.4569   6.4602   6.4604   6.4625   6.4636   6.4644   6.4645
     6.4681   6.4696   6.4702   6.4706   6.4741   6.4749   6.4787   6.4807
     6.4848   6.4860   6.4904   6.4920   6.4931   6.4960   6.5003   6.5082
     6.5108   6.5132   6.5145   6.5147   6.5154   6.5181   6.5283   6.5314
     6.5344   6.5359   6.5363   6.5368   6.5377   6.5399   6.5458   6.5461
     6.5472   6.5475   6.5485   6.5487   6.5490   6.5495   6.5502   6.5533
     6.5540   6.5593   6.5679   6.5692   6.5702   6.5734   6.5741   6.5754
     6.5763   6.5843   6.5847   6.5861   6.5870   6.5875   6.5893   6.5898
     6.5957   6.5976   6.5980   6.5986   6.5988   6.5990   6.5991   6.5994
     6.6004   6.6006   6.6028   6.6030   6.6060   6.6066   6.6083   6.6155
     6.6173   6.6204   6.6318   6.6352   6.6387   6.6396   6.6397   6.6402
     6.6445   6.6457   6.6474   6.6483   6.6551   6.6579   6.6603   6.6612
     6.6618   6.6647   6.6777   6.6853   6.7036   6.7059   6.7123   6.7164
     6.7189   6.7218   6.7246   6.7283   6.7371   6.7401   6.7573   6.7609
     6.7614   6.7744   6.7772   6.7926   6.7990   6.8159   6.8282   6.8325
     6.8332   6.8361   6.8389   6.8440   6.8501   6.8531   6.8706   6.8766
     6.8948   6.8965   6.8977   6.9043   6.9051   6.9122   6.9127   6.9178
     6.9631   6.9703   7.0209   7.0214   7.0300   7.0396   7.0404   7.0479
     7.0583   7.0694   7.0746   7.0919   7.0942   7.0961   7.1133   7.1154
     7.1168   7.1972   7.2293   7.2545   7.2800   7.2989   7.3123   7.3585
     7.3671   7.3837   7.3854   7.3884   7.4224   7.4349   7.4371   7.4387
     7.4814   7.5038   7.5066   7.5278   7.5486   7.5491   7.6076   7.6167
     7.6228   7.6358   7.6700   7.6724   7.7184   7.7258   7.7321   7.7366
     7.7383   7.7530   7.7609   7.7682   7.7882   7.7969   7.7977   7.8030
     7.8224   7.8405   7.8551   7.8673   7.8703   7.8791   7.8847   7.9036
     7.9133   7.9323   7.9963   8.0294   8.0480   8.0530   8.0561   8.0730
     8.1178   8.1457   8.1525   8.1578   8.1769   8.1801   8.1854   8.2078
     8.2130   8.2413   8.2494   8.2758   8.2796   8.3018   8.3281   8.3342
     8.3594   8.3988   8.4178   8.4181   8.4217   8.4365   8.4540   8.4643
     8.4779   8.5041   8.5190   8.5233   8.5310   8.5447   8.5564   8.5609
     8.5703   8.5797   8.5833   8.5837   8.5929   8.6101   8.6327   8.6534
     8.6922   8.7020   8.7263   8.7676   8.7838   8.7916   8.8078   8.8089
     8.8120   8.8250   8.8306   8.8399   8.8441   8.8706   8.9073   8.9171
     8.9313   8.9363   8.9367   8.9498   9.0101   9.0125   9.0199   9.0243
     9.0403   9.0537   9.0628   9.0685   9.0693   9.0952   9.1182   9.1572
     9.1888   9.2174   9.2289   9.2391   9.2474   9.2507   9.2617   9.2727
     9.2732   9.2866   9.3065   9.3072   9.3197   9.3256   9.3269   9.3280
     9.3578   9.3629   9.3837   9.3849   9.3878   9.4398   9.4414   9.4564
     9.5040   9.5468   9.5695   9.5918   9.5947   9.6039   9.6159   9.6321
     9.6416   9.6588   9.6714   9.6838   9.7043   9.7270   9.7410   9.7541
     9.7550   9.7591   9.7814   9.7886   9.7974   9.8048   9.8116   9.8208
     9.8222   9.8247   9.8281   9.8478   9.8589   9.8647   9.8791   9.8885
     9.9107   9.9634   9.9725  10.0094  10.0102  10.0139  10.0292  10.0456
    10.0513  10.0526  10.0797  10.0798  10.1036  10.1075  10.1087  10.1808
    10.1894  10.2542  10.2542  10.2712  10.3018  10.3123  10.3169  10.3536
    10.3540  10.3978  10.3987  10.4769  10.4772  10.4832  10.5072  10.5283
    10.5297  10.5327  10.5375  10.5382  10.5498  10.5689  10.6023  10.6303
    10.6316  10.6341  10.6498  10.6530  10.6531  10.6619  10.6684  10.6911
    10.7480  10.7715  10.7922  10.7972  10.8097  10.8231  10.8260  10.8419
    10.8474  10.8526  10.8567  10.8626  10.8757  10.9211  10.9560  10.9580
    10.9785  10.9797  10.9898  11.0170  11.0507  11.0566  11.0589  11.0712
    11.1162  11.1220  11.1245  11.1354  11.1406  11.1606  11.1746  11.1853
    11.1945  11.2103  11.2115  11.2167  11.2172  11.2252  11.2279  11.2305
    11.2408  11.2468  11.2640  11.2914  11.2981  11.3019  11.3050  11.3222
    11.3275  11.3309  11.3500  11.3544  11.3818  11.4050  11.4174  11.4220
    11.4235  11.4453  11.4696  11.4804  11.5086  11.5329  11.5356  11.5540
    11.5682  11.5892  11.6094  11.6421  11.6465  11.6812  11.6815  11.7124
    11.7199  11.7207  11.7223  11.7288  11.7353  11.8230  11.8265  11.8466
    11.8476  11.8544  11.8682  11.8959  11.8980  11.9135  11.9429  11.9446
    11.9761  11.9996  12.0125  12.0301  12.0429  12.0682  12.0683  12.0802
    12.0999  12.1108  12.1251  12.1392  12.1517  12.1558  12.2035  12.2337
    12.2483  12.2580  12.2612  12.2715  12.2771  12.2900  12.2925  12.3261
    12.3355  12.3379  12.3574  12.3619  12.3682  12.3702  12.3755  12.4172
    12.4433  12.4451  12.4455  12.4617  12.4622  12.5455  12.5524  12.5572
    12.5598  12.5758  12.5787  12.5900  12.5916  12.5925  12.6010  12.6125
    12.6180  12.6354  12.6355  12.6360  12.6440  12.6510  12.6552  12.6759
    12.6912  12.6935  12.7111  12.7138  12.7304  12.7317  12.7412  12.7420
    12.7587  12.7598  12.7761  12.7948  12.8175  12.8183  12.8251  12.8344
    12.8514  12.8842  12.8855  12.9015  12.9052  12.9205  12.9281  12.9668
    12.9945  13.0002  13.0085  13.0163  13.0202  13.0270  13.0296  13.0356
    13.0389  13.0451  13.0672  13.0785  13.0950  13.1166  13.1229  13.1307
    13.1431  13.1518  13.1761  13.1795  13.1798  13.2031  13.2308  13.2325
    13.2466  13.2705  13.2827  13.2851  13.2909  13.3088  13.3138  13.3303
    13.3812  13.3856  13.3895  13.4010  13.4132  13.4181  13.4276  13.4299
    13.4322  13.4654  13.4712  13.4734  13.5032  13.5060  13.5100  13.5337
    13.5495  13.5695  13.5748  13.5870  13.5906  13.6074  13.6093  13.6196
    13.6198  13.6511  13.6598  13.6735  13.6851  13.6853  13.6952  13.7057
    13.7159  13.7207  13.7281  13.7545  13.7636  13.7692  13.7708  13.7711
    13.7753  13.8002  13.8179  13.8180  13.8190  13.8241  13.8287  13.8299
    13.8322  13.8365  13.8617  13.8956  13.9028  13.9036  13.9129  13.9149
    13.9261  13.9375  13.9572  13.9727  13.9902  13.9950  13.9963  14.0047
    14.0226  14.0295  14.0307  14.0539  14.0573  14.0729  14.0851  14.1156
    14.1175  14.1193  14.1499  14.1512  14.1518  14.1563  14.1586  14.1626
    14.1627  14.1646  14.1871  14.1917  14.2043  14.2501  14.2524  14.2824
    14.2908  14.2953  14.3032  14.3117  14.3271  14.3295  14.3459  14.3713
    14.3814  14.3836  14.4019  14.4022  14.4061  14.4101  14.4225  14.4254
    14.4571  14.4590  14.4618  14.5040  14.5055  14.5116  14.5776  14.6053
    14.6311  14.6469  14.6604

          k = 0.1250 0.3248 0.0000 (330368 PWs)   bands (ev):

    -0.7619  -0.6492  -0.4211  -0.3201  -0.3103  -0.2141  -0.0397  -0.0073
     0.0115   0.0599   0.0747   0.1142   0.1829   0.2829   0.2871   0.3127
     0.3779   0.3945   0.4954   0.5922   0.5932   0.6339   0.6501   0.6778
     0.6964   0.7536   0.7565   0.7782   0.8412   0.9031   0.9188   0.9612
     1.0323   1.0615   1.0621   1.1033   1.1352   1.1547   1.1667   1.1734
     1.1945   1.2786   1.3074   1.3098   1.3197   1.3287   1.3458   1.3523
     1.3704   1.3853   1.4008   1.4195   1.4416   1.4492   1.4732   1.4888
     1.4895   1.5421   1.5442   1.5538   1.5810   1.5818   1.5850   1.5916
     1.5995   1.6064   1.6091   1.6249   1.6250   1.6294   1.6523   1.6538
     1.6561   1.6584   1.6604   1.6693   1.6754   1.6822   1.7023   1.7038
     1.7124   1.7178   1.7259   1.7401   1.7703   1.7854   1.8002   1.8059
     1.8068   1.8070   1.8177   1.8370   1.8451   1.8573   1.8599   1.8621
     1.8696   1.8722   1.8724   1.8761   1.8846   1.8884   1.8927   1.9070
     1.9086   1.9133   1.9157   1.9210   1.9293   1.9329   1.9379   1.9411
     1.9516   1.9557   1.9574   1.9590   1.9596   1.9660   1.9723   1.9820
     1.9843   1.9858   1.9870   1.9903   1.9926   2.0088   2.0155   2.0247
     2.0259   2.0262   2.0328   2.0366   2.0399   2.0457   2.0509   2.0570
     2.0597   2.0598   2.0600   2.0700   2.0722   2.0773   2.0793   2.0867
     2.0871   2.0919   2.1019   2.1170   2.1207   2.1210   2.1304   2.1361
     2.1387   2.1431   2.1446   2.1457   2.1458   2.1462   2.1463   2.1491
     2.1496   2.1546   2.1583   2.1589   2.1593   2.1622   2.1623   2.1630
     2.1640   2.1716   2.1733   2.1742   2.1859   2.1932   2.1961   2.2019
     2.2020   2.2022   2.2044   2.2098   2.2105   2.2108   2.2132   2.2147
     2.2156   2.2183   2.2227   2.2303   2.2309   2.2331   2.2367   2.2372
     2.2439   2.2445   2.2467   2.2521   2.2525   2.2538   2.2552   2.2561
     2.2580   2.2634   2.2722   2.2832   2.2850   2.2856   2.2882   2.2947
     2.2949   2.2999   2.3113   2.3154   2.3255   2.3270   2.3328   2.3346
     2.3365   2.3370   2.3399   2.3409   2.3418   2.3481   2.3486   2.3518
     2.3552   2.3603   2.3666   2.3666   2.3699   2.3714   2.3745   2.3784
     2.3797   2.3803   2.3836   2.3848   2.3855   2.3862   2.3875   2.3892
     2.3917   2.3924   2.3925   2.3950   2.3951   2.4065   2.4146   2.4243
     2.4323   2.4328   2.4387   2.4499   2.4502   2.4519   2.4525   2.4574
     2.4579   2.4590   2.4597   2.4607   2.4633   2.4652   2.4661   2.4696
     2.4700   2.4756   2.4756   2.4829   2.4891   2.4894   2.4965   2.5001
     2.5017   2.5028   2.5074   2.5079   2.5110   2.5129   2.5143   2.5164
     2.5209   2.5212   2.5223   2.5232   2.5278   2.5279   2.5293   2.5324
     2.5336   2.5410   2.5436   2.5440   2.5462   2.5504   2.5516   2.5571
     2.5601   2.5604   2.5660   2.5695   2.5719   2.5767   2.5771   2.5781
     2.5787   2.5880   2.5893   2.5924   2.5942   2.5954   2.6022   2.6073
     2.6078   2.6081   2.6083   2.6097   2.6107   2.6120   2.6121   2.6128
     2.6139   2.6167   2.6199   2.6225   2.6234   2.6349   2.6359   2.6430
     2.6464   2.6468   2.6470   2.6485   2.6497   2.6513   2.6517   2.6548
     2.6653   2.6681   2.6683   2.6753   2.6760   2.6767   2.6778   2.6791
     2.6797   2.6841   2.6846   2.6866   2.6888   2.6916   2.6925   2.6940
     2.6945   2.6950   2.7017   2.7037   2.7143   2.7155   2.7239   2.7285
     2.7314   2.7319   2.7337   2.7338   2.7342   2.7397   2.7412   2.7428
     2.7441   2.7481   2.7527   2.7581   2.7604   2.7612   2.7660   2.7764
     2.7786   2.7816   2.7888   2.7890   2.7894   2.7901   2.7918   2.7933
     2.7977   2.8031   2.8038   2.8052   2.8055   2.8151   2.8174   2.8235
     2.8272   2.8275   2.8279   2.8326   2.8361   2.8387   2.8411   2.8459
     2.8489   2.8501   2.8513   2.8517   2.8573   2.8599   2.8623   2.8638
     2.8688   2.8757   2.8808   2.8882   2.8930   2.8932   2.8938   2.8971
     2.8991   2.9002   2.9016   2.9049   2.9056   2.9094   2.9148   2.9171
     2.9172   2.9262   2.9329   2.9435   2.9447   2.9459   2.9503   2.9511
     2.9511   2.9533   2.9553   2.9569   2.9616   2.9617   2.9682   2.9701
     2.9709   2.9767   2.9769   2.9802   2.9862   2.9864   2.9918   2.9921
[...]
     atom  202 type  1   force =    -0.00000105    0.00019549   -0.00054768
     atom  203 type  1   force =     0.00000000    0.00019536   -0.00054789
     atom  204 type  1   force =     0.00000000    0.00019527   -0.00054793
     atom  205 type  1   force =     0.00000000    0.00019527   -0.00054788
     atom  206 type  1   force =     0.00000104    0.00019558   -0.00054772
     atom  207 type  1   force =     0.00000105    0.00019548   -0.00054772
     atom  208 type  1   force =    -0.00000106    0.00019558   -0.00054770
     atom  209 type  1   force =    -0.00000107    0.00019549   -0.00054771
     atom  210 type  1   force =     0.00000000    0.00019521   -0.00054782
     atom  211 type  1   force =     0.00000000    0.00019536   -0.00054787
     atom  212 type  1   force =     0.00000000    0.00019526   -0.00054789
     atom  213 type  1   force =     0.00000000    0.00019526   -0.00054782
     atom  214 type  1   force =     0.00000071   -0.00018653    0.00042521
     atom  215 type  1   force =     0.00000105    0.00019549   -0.00054768
     atom  216 type  1   force =    -0.00000107    0.00019547   -0.00054764
     atom  217 type  1   force =     0.00000080    0.00018820   -0.00042842
     atom  218 type  1   force =    -0.00000082    0.00018820   -0.00042845
     atom  219 type  1   force =     0.00000000    0.00018768   -0.00042788
     atom  220 type  1   force =    -0.00000118   -0.00019422    0.00054585
     atom  221 type  1   force =    -0.00000002   -0.00019529    0.00054486
     atom  222 type  1   force =    -0.00000001   -0.00019526    0.00054484
     atom  223 type  1   force =     0.00000002   -0.00019529    0.00054486
     atom  224 type  1   force =     0.00000080    0.00018816   -0.00042841
     atom  225 type  1   force =     0.00000081    0.00018821   -0.00042846
     atom  226 type  1   force =     0.00000081    0.00018816   -0.00042844
     atom  227 type  1   force =    -0.00000083    0.00018815   -0.00042845
     atom  228 type  1   force =    -0.00000082    0.00018819   -0.00042849
     atom  229 type  1   force =    -0.00000082    0.00018816   -0.00042846
     atom  230 type  1   force =     0.00000000    0.00018765   -0.00042783
     atom  231 type  1   force =     0.00000000    0.00018770   -0.00042793
     atom  232 type  1   force =     0.00000000    0.00018765   -0.00042789
     atom  233 type  1   force =     0.00000082    0.00018820   -0.00042845
     atom  234 type  1   force =     0.00000083    0.00018815   -0.00042845
     atom  235 type  1   force =     0.00000082    0.00018819   -0.00042849
     atom  236 type  1   force =     0.00000082    0.00018816   -0.00042846
     atom  237 type  1   force =    -0.00000080    0.00018820   -0.00042842
     atom  238 type  1   force =    -0.00000080    0.00018816   -0.00042841
     atom  239 type  1   force =    -0.00000081    0.00018821   -0.00042846
     atom  240 type  1   force =     0.00000000    0.00018771   -0.00042779
     atom  241 type  1   force =     0.00000000    0.00018766   -0.00042781
     atom  242 type  1   force =     0.00000000    0.00018771   -0.00042788
     atom  243 type  1   force =    -0.00000118   -0.00019420    0.00054583
     atom  244 type  1   force =    -0.00000119   -0.00019420    0.00054584
     atom  245 type  1   force =    -0.00000119   -0.00019427    0.00054584
     atom  246 type  1   force =    -0.00000001   -0.00019525    0.00054486
     atom  247 type  1   force =    -0.00000002   -0.00019535    0.00054484
     atom  248 type  1   force =     0.00000117   -0.00019421    0.00054582
     atom  249 type  1   force =     0.00000118   -0.00019418    0.00054578
     atom  250 type  1   force =     0.00000118   -0.00019418    0.00054581
     atom  251 type  1   force =     0.00000117   -0.00019427    0.00054577
     atom  252 type  1   force =    -0.00000117   -0.00019421    0.00054582
     atom  253 type  1   force =    -0.00000118   -0.00019418    0.00054578
     atom  254 type  1   force =    -0.00000118   -0.00019418    0.00054581
     atom  255 type  1   force =     0.00000001   -0.00019526    0.00054484
     atom  256 type  1   force =     0.00000001   -0.00019525    0.00054486
     atom  257 type  1   force =     0.00000118   -0.00019422    0.00054585
     atom  258 type  1   force =     0.00000118   -0.00019420    0.00054583
     atom  259 type  1   force =     0.00000119   -0.00019420    0.00054584
     atom  260 type  1   force =    -0.00000081    0.00018816   -0.00042844
     atom  261 type  1   force =     0.00000000    0.00018767   -0.00042784
     atom  262 type  1   force =    -0.00000117   -0.00019427    0.00054577
     atom  263 type  1   force =     0.00000002   -0.00019535    0.00054484
     atom  264 type  1   force =     0.00000119   -0.00019427    0.00054584
     atom  265 type  1   force =     0.00000000    0.00045265    0.00050030
     atom  266 type  1   force =     0.00000000    0.00045256    0.00050018
     atom  267 type  1   force =     0.00000120    0.00045284    0.00049911
     atom  268 type  1   force =     0.00000120    0.00045279    0.00049901
     atom  269 type  1   force =    -0.00000127    0.00045287    0.00049912
     atom  270 type  1   force =     0.00000000    0.00045265    0.00050021
     atom  271 type  1   force =     0.00000127    0.00045287    0.00049912
     atom  272 type  1   force =    -0.00000041   -0.00028700    0.00072587
     atom  273 type  1   force =    -0.00000005   -0.00028658    0.00072681
     atom  274 type  1   force =     0.00000035   -0.00028702    0.00072579
     atom  275 type  1   force =     0.00000000    0.00045266    0.00050021
     atom  276 type  1   force =     0.00000120    0.00045286    0.00049898
     atom  277 type  1   force =     0.00000120    0.00045286    0.00049905
     atom  278 type  1   force =    -0.00000125    0.00045285    0.00049895
     atom  279 type  1   force =    -0.00000126    0.00045287    0.00049902
     atom  280 type  1   force =     0.00000000    0.00045264    0.00050007
     atom  281 type  1   force =     0.00000000    0.00045268    0.00050014
     atom  282 type  1   force =     0.00000126    0.00045281    0.00049897
     atom  283 type  1   force =     0.00000125    0.00045285    0.00049895
     atom  284 type  1   force =     0.00000126    0.00045287    0.00049902
     atom  285 type  1   force =    -0.00000120    0.00045279    0.00049901
     atom  286 type  1   force =    -0.00000120    0.00045286    0.00049898
     atom  287 type  1   force =    -0.00000120    0.00045286    0.00049905
     atom  288 type  1   force =    -0.00000039   -0.00028696    0.00072574
     atom  289 type  1   force =    -0.00000038   -0.00028690    0.00072581
     atom  290 type  1   force =    -0.00000041   -0.00028700    0.00072589
     atom  291 type  1   force =    -0.00000004   -0.00028653    0.00072667
     atom  292 type  1   force =    -0.00000004   -0.00028646    0.00072675
     atom  293 type  1   force =    -0.00000004   -0.00028658    0.00072683
     atom  294 type  1   force =     0.00000037   -0.00028697    0.00072567
     atom  295 type  1   force =     0.00000035   -0.00028692    0.00072575
     atom  296 type  1   force =     0.00000035   -0.00028702    0.00072583
     atom  297 type  1   force =    -0.00000035   -0.00028702    0.00072579
     atom  298 type  1   force =    -0.00000037   -0.00028697    0.00072567
     atom  299 type  1   force =    -0.00000035   -0.00028692    0.00072575
     atom  300 type  1   force =    -0.00000035   -0.00028702    0.00072583
     atom  301 type  1   force =     0.00000005   -0.00028658    0.00072681
     atom  302 type  1   force =     0.00000004   -0.00028653    0.00072667
     atom  303 type  1   force =     0.00000004   -0.00028646    0.00072675
     atom  304 type  1   force =     0.00000041   -0.00028700    0.00072587
     atom  305 type  1   force =     0.00000039   -0.00028696    0.00072574
     atom  306 type  1   force =     0.00000038   -0.00028690    0.00072581
     atom  307 type  1   force =     0.00000000    0.00045265    0.00050016
     atom  308 type  1   force =    -0.00000126    0.00045281    0.00049897
     atom  309 type  1   force =     0.00000000    0.00045259    0.00050009
     atom  310 type  1   force =    -0.00000120    0.00045284    0.00049911
     atom  311 type  1   force =     0.00000004   -0.00028658    0.00072683
     atom  312 type  1   force =     0.00000041   -0.00028700    0.00072589
     atom  313 type  1   force =     0.00000033   -0.00056075    0.00383564
     atom  314 type  1   force =    -0.00000009   -0.00056112    0.00383280
     atom  315 type  1   force =    -0.00000040   -0.00056075    0.00383547
     atom  316 type  1   force =     0.00000041   -0.00056107    0.00383548
     atom  317 type  1   force =     0.00000010   -0.00056144    0.00383280
     atom  318 type  1   force =    -0.00000033   -0.00056109    0.00383563
     atom  319 type  1   force =     0.00000097    0.00053336   -0.00457861
     atom  320 type  1   force =    -0.00000114    0.00053334   -0.00457882
     atom  321 type  1   force =     0.00000000    0.00053287   -0.00457835
     atom  322 type  1   force =     0.00000114    0.00053334   -0.00457882
     atom  323 type  1   force =    -0.00000096    0.00053309   -0.00457859
     atom  324 type  1   force =     0.00000000    0.00053261   -0.00457806
     atom  325 type  1   force =     0.00000031   -0.00056102    0.00383578
     atom  326 type  1   force =     0.00000033   -0.00056109    0.00383563
     atom  327 type  1   force =     0.00000032   -0.00056076    0.00383578
     atom  328 type  1   force =    -0.00000010   -0.00056138    0.00383295
     atom  329 type  1   force =    -0.00000010   -0.00056144    0.00383280
     atom  330 type  1   force =    -0.00000042   -0.00056103    0.00383563
     atom  331 type  1   force =    -0.00000041   -0.00056107    0.00383548
     atom  332 type  1   force =     0.00000042   -0.00056103    0.00383563
     atom  333 type  1   force =     0.00000040   -0.00056075    0.00383547
     atom  334 type  1   force =     0.00000010   -0.00056138    0.00383295
     atom  335 type  1   force =    -0.00000031   -0.00056102    0.00383578
     atom  336 type  1   force =     0.00000096    0.00053309   -0.00457859
     atom  337 type  1   force =     0.00000099    0.00053333   -0.00457873
     atom  338 type  1   force =     0.00000098    0.00053328   -0.00457848
     atom  339 type  1   force =    -0.00000114    0.00053306   -0.00457869
     atom  340 type  1   force =    -0.00000113    0.00053336   -0.00457871
     atom  341 type  1   force =     0.00000000    0.00053260   -0.00457827
     atom  342 type  1   force =     0.00000000    0.00053290   -0.00457825
     atom  343 type  1   force =     0.00000114    0.00053306   -0.00457869
     atom  344 type  1   force =     0.00000113    0.00053336   -0.00457871
     atom  345 type  1   force =    -0.00000099    0.00053333   -0.00457873
     atom  346 type  1   force =     0.00000000    0.00053286   -0.00457819
     atom  347 type  1   force =    -0.00000009   -0.00056112    0.00383297
     atom  348 type  1   force =    -0.00000040   -0.00056074    0.00383568
     atom  349 type  1   force =     0.00000040   -0.00056074    0.00383568
     atom  350 type  1   force =     0.00000009   -0.00056112    0.00383280
     atom  351 type  1   force =     0.00000009   -0.00056112    0.00383297
     atom  352 type  1   force =    -0.00000033   -0.00056075    0.00383564
     atom  353 type  1   force =    -0.00000032   -0.00056076    0.00383578
     atom  354 type  1   force =    -0.00000113    0.00053327   -0.00457854
     atom  355 type  1   force =     0.00000000    0.00053277   -0.00457811
     atom  356 type  1   force =     0.00000113    0.00053327   -0.00457854
     atom  357 type  1   force =    -0.00000097    0.00053336   -0.00457861
     atom  358 type  1   force =    -0.00000098    0.00053328   -0.00457848
     atom  359 type  1   force =     0.00000000    0.00053288   -0.00457810
     atom  360 type  1   force =     0.00000000    0.00053281   -0.00457796
     atom  361 type  1   force =    -0.00000025   -0.00336111    0.01652811
     atom  362 type  1   force =    -0.00000008   -0.00336113    0.01652797
     atom  363 type  1   force =     0.00000000   -0.00336281    0.01653108
     atom  364 type  1   force =     0.00000014   -0.00336148    0.01652785
     atom  365 type  1   force =     0.00000027   -0.00336151    0.01652804
     atom  366 type  1   force =     0.00000000   -0.00336293    0.01653167
     atom  367 type  1   force =    -0.00000055    0.00160061    0.00962580
     atom  368 type  1   force =    -0.00000021    0.00160125    0.00962858
     atom  369 type  1   force =     0.00000036    0.00160053    0.00962522
     atom  370 type  1   force =    -0.00000036    0.00160053    0.00962522
     atom  371 type  1   force =     0.00000021    0.00160094    0.00962874
     atom  372 type  1   force =     0.00000055    0.00160016    0.00962576
     atom  373 type  1   force =    -0.00000027   -0.00336153    0.01652838
     atom  374 type  1   force =    -0.00000027   -0.00336151    0.01652804
     atom  375 type  1   force =    -0.00000022   -0.00336124    0.01652839
     atom  376 type  1   force =    -0.00000012   -0.00336152    0.01652815
     atom  377 type  1   force =    -0.00000014   -0.00336148    0.01652785
     atom  378 type  1   force =     0.00000000   -0.00336293    0.01653130
     atom  379 type  1   force =     0.00000000   -0.00336252    0.01653110
     atom  380 type  1   force =     0.00000012   -0.00336152    0.01652815
     atom  381 type  1   force =     0.00000008   -0.00336113    0.01652797
     atom  382 type  1   force =     0.00000027   -0.00336153    0.01652838
     atom  383 type  1   force =     0.00000000   -0.00336288    0.01653134
     atom  384 type  1   force =    -0.00000055    0.00160016    0.00962576
     atom  385 type  1   force =    -0.00000054    0.00160042    0.00962558
     atom  386 type  1   force =    -0.00000055    0.00160034    0.00962602
     atom  387 type  1   force =    -0.00000021    0.00160094    0.00962874
     atom  388 type  1   force =    -0.00000017    0.00160143    0.00962889
     atom  389 type  1   force =     0.00000032    0.00160017    0.00962530
     atom  390 type  1   force =     0.00000037    0.00160065    0.00962553
     atom  391 type  1   force =    -0.00000032    0.00160017    0.00962530
     atom  392 type  1   force =    -0.00000037    0.00160065    0.00962553
     atom  393 type  1   force =     0.00000021    0.00160125    0.00962858
     atom  394 type  1   force =     0.00000054    0.00160042    0.00962558
     atom  395 type  1   force =    -0.00000008   -0.00336125    0.01652827
     atom  396 type  1   force =     0.00000000   -0.00336261    0.01653142
     atom  397 type  1   force =     0.00000008   -0.00336125    0.01652827
     atom  398 type  1   force =     0.00000025   -0.00336111    0.01652811
     atom  399 type  1   force =     0.00000022   -0.00336124    0.01652839
     atom  400 type  1   force =     0.00000000   -0.00336252    0.01653142
     atom  401 type  1   force =     0.00000000   -0.00336261    0.01653174
     atom  402 type  1   force =    -0.00000020    0.00160108    0.00962902
     atom  403 type  1   force =     0.00000036    0.00160026    0.00962564
     atom  404 type  1   force =    -0.00000036    0.00160026    0.00962564
     atom  405 type  1   force =     0.00000017    0.00160143    0.00962889
     atom  406 type  1   force =     0.00000020    0.00160108    0.00962902
     atom  407 type  1   force =     0.00000055    0.00160061    0.00962580
     atom  408 type  1   force =     0.00000055    0.00160034    0.00962602
     atom  409 type  1   force =    -0.00000061    0.00165007   -0.02668850
     atom  410 type  1   force =    -0.00000029    0.00165018   -0.02668221
     atom  411 type  1   force =     0.00000031    0.00164967   -0.02668897
     atom  412 type  1   force =    -0.00000031    0.00164967   -0.02668897
     atom  413 type  1   force =     0.00000041    0.00164968   -0.02668252
     atom  414 type  1   force =     0.00000065    0.00164915   -0.02668820
     atom  415 type  1   force =    -0.00000065    0.00164915   -0.02668820
     atom  416 type  1   force =    -0.00000063    0.00164951   -0.02668858
     atom  417 type  1   force =    -0.00000063    0.00164984   -0.02668805
     atom  418 type  1   force =    -0.00000036    0.00164922   -0.02668227
     atom  419 type  1   force =    -0.00000041    0.00164968   -0.02668252
     atom  420 type  1   force =     0.00000026    0.00164914   -0.02668873
     atom  421 type  1   force =     0.00000029    0.00165007   -0.02668856
     atom  422 type  1   force =    -0.00000026    0.00164914   -0.02668873
     atom  423 type  1   force =    -0.00000029    0.00165007   -0.02668856
     atom  424 type  1   force =     0.00000036    0.00164922   -0.02668227
     atom  425 type  1   force =     0.00000063    0.00164951   -0.02668858
     atom  426 type  1   force =    -0.00000032    0.00164972   -0.02668839
     atom  427 type  1   force =     0.00000031    0.00164988   -0.02668195
     atom  428 type  1   force =     0.00000063    0.00164984   -0.02668805
     atom  429 type  1   force =    -0.00000031    0.00164988   -0.02668195
     atom  430 type  1   force =     0.00000032    0.00164972   -0.02668839
     atom  431 type  1   force =     0.00000029    0.00165018   -0.02668221
     atom  432 type  1   force =     0.00000061    0.00165007   -0.02668850

     Total force =     0.233216     Total SCF correction =     0.003172
 
     init_run     :    363.97s CPU     54.10s WALL (       1 calls)
     electrons    :  34343.39s CPU   4694.49s WALL (       1 calls)
     forces       :    177.25s CPU     27.49s WALL (       1 calls)

     Called by init_run:
     wfcinit      :    350.52s CPU     48.38s WALL (       1 calls)
     potinit      :      3.79s CPU      0.53s WALL (       1 calls)
     hinit0       :      4.27s CPU      1.33s WALL (       1 calls)

     Called by electrons:
     c_bands      :  31835.03s CPU   4338.65s WALL (      28 calls)
     sum_band     :   2373.06s CPU    335.52s WALL (      28 calls)
     v_of_rho     :     55.14s CPU      7.36s WALL (      28 calls)
     newd         :     55.35s CPU      9.75s WALL (      28 calls)
     mix_rho      :     17.07s CPU      2.29s WALL (      28 calls)

     Called by c_bands:
     init_us_2    :     39.23s CPU      5.33s WALL (      57 calls)
     cegterg      :  31449.79s CPU   4108.06s WALL (      29 calls)

     Called by *egterg:
     cdiaghg      :  11817.37s CPU   1570.48s WALL (     256 calls)
     h_psi        :   8480.83s CPU   1116.77s WALL (     258 calls)
     s_psi        :   2402.51s CPU    302.89s WALL (     258 calls)
     g_psi        :     10.74s CPU      1.35s WALL (     228 calls)

     Called by h_psi:
     h_psi:calbec :   2355.95s CPU    330.73s WALL (     258 calls)
     vloc_psi     :   3840.92s CPU    496.28s WALL (     258 calls)
     add_vuspsi   :   2261.34s CPU    285.29s WALL (     258 calls)

     General routines
     calbec       :   3480.18s CPU    487.64s WALL (     290 calls)
     fft          :     39.08s CPU      5.29s WALL (     374 calls)
     ffts         :      5.13s CPU      0.67s WALL (      56 calls)
     fftw         :   4821.45s CPU    623.72s WALL (  445746 calls)
     interpolate  :      4.65s CPU      0.61s WALL (      28 calls)
 
     Parallel routines
     fft_scatt_xy :    375.61s CPU     46.99s WALL (  446176 calls)
     fft_scatt_yz :   3241.53s CPU    425.35s WALL (  446176 calls)
 
     PWSCF        :      9h41m CPU      1h19m WALL

 
   This run was terminated on:  12:36:17  15Sep2021            

=------------------------------------------------------------------------------=
   JOB DONE.
=------------------------------------------------------------------------------=
