
     Program PWSCF v.6.6 starts on 15Sep2021 at 18:16:15 

     This program is part of the open-source Quantum ESPRESSO suite
     for quantum simulation of materials; please cite
         "P. Giannozzi et al., J. Phys.:Condens. Matter 21 395502 (2009);
         "P. Giannozzi et al., J. Phys.:Condens. Matter 29 465901 (2017);
          URL http://www.quantum-espresso.org", 
     in publications or presentations arising from this work. More details at
     http://www.quantum-espresso.org/quote

     Parallel version (MPI & OpenMP), running on     768 processor cores
     Number of MPI processes:               192
     Threads/MPI process:                     4

     MPI processes distributed on    16 nodes
     K-points division:     npool     =       4
     R & G space division:  proc/nbgrp/npool/nimage =      48
     Fft bands division:     nmany     =       1
     Reading input from ../inputs/input_ausurf_432

     Current dimensions of program PWSCF are:
     Max number of different atomic species (ntypx) = 10
     Max number of k-points (npk) =  40000
     Max angular momentum in pseudopotentials (lmaxx) =  3

     Subspace diagonalization in iterative solution of the eigenvalue problem:
     one sub-group per band group will be used
     ELPA distributed-memory algorithm (size of sub-group:  6*  6 procs)

     Found symmetry operation: I + (  0.1667  0.0000  0.0000)
     This is a supercell, fractional translations are disabled
 
     Parallelization info
     --------------------
     sticks:   dense  smooth     PW     G-vecs:    dense   smooth      PW
     Min         749     342     88               178137    55058    7188
     Max         751     343     89               178142    55067    7195
     Sum       35971   16449   4235              8550627  2643085  345153
 

     Title: 
      Ausurf                                                                    


     bravais-lattice index     =            8
     lattice parameter (alat)  =      33.4482  a.u.
     unit-cell volume          =   77333.9228 (a.u.)^3
     number of atoms/cell      =          432
     number of atomic types    =            1
     number of electrons       =      4752.00
     number of Kohn-Sham states=         2851
     kinetic-energy cutoff     =      40.0000  Ry
     charge density cutoff     =     350.0000  Ry
     convergence threshold     =      1.0E-06
     mixing beta               =       0.7000
     number of iterations used =            8  TF        mixing
     Exchange-correlation=  SLA  PW   PBE  PBE
                           (   1   4   3   4   0   0   0)

     celldm(1)=  33.448152  celldm(2)=   1.154701  celldm(3)=   1.789717
     celldm(4)=   0.000000  celldm(5)=   0.000000  celldm(6)=   0.000000

     crystal axes: (cart. coord. in units of alat)
               a(1) = (   1.000000   0.000000   0.000000 )  
               a(2) = (   0.000000   1.154701   0.000000 )  
               a(3) = (   0.000000   0.000000   1.789717 )  

     reciprocal axes: (cart. coord. in units 2 pi/alat)
               b(1) = (  1.000000  0.000000  0.000000 )  
               b(2) = (  0.000000  0.866025  0.000000 )  
               b(3) = (  0.000000  0.000000  0.558748 )  


     PseudoPot. # 1 for Au read from file:
     /marconi/home/userexternal/czeni000/dft_src/pseudo/Au.pbe-nd-van.UPF
     MD5 check sum: deb5c07af10777505a79e28f5b4b4115
     Pseudo is Ultrasoft + core correction, Zval = 11.0
     Generated by new atomic code, or converted to UPF format
     Using radial grid of  985 points,  3 beta functions with: 
                l(1) =   1
                l(2) =   2
                l(3) =   2
     Q(r) pseudized with  8 coefficients,  rinner =    1.100   1.100   1.100
                                                       1.100   1.100

     atomic species   valence    mass     pseudopotential
        Au            11.00   196.96000     Au( 1.00)

      2 Sym. Ops. (no inversion) found



   Cartesian axes

     site n.     atom                  positions (alat units)
         1           Au  tau(   1) = (   0.0000000   0.0000000   0.0000000  )
         2           Au  tau(   2) = (   0.1666667   0.0000000   0.0000000  )
         3           Au  tau(   3) = (   0.3333333   0.0000000   0.0000000  )
         4           Au  tau(   4) = (   0.0000000   0.2886751   0.0000000  )
         5           Au  tau(   5) = (   0.5000000   0.0000000   0.0000000  )
         6           Au  tau(   6) = (   0.1666667   0.2886751   0.0000000  )
         7           Au  tau(   7) = (   0.6666667   0.0000000   0.0000000  )
         8           Au  tau(   8) = (   0.3333333   0.2886751   0.0000000  )
         9           Au  tau(   9) = (   0.8333333   0.0000000   0.0000000  )
        10           Au  tau(  10) = (   0.0000000   0.5773503   0.0000000  )
        11           Au  tau(  11) = (   0.5000000   0.2886751   0.0000000  )
        12           Au  tau(  12) = (   0.1666667   0.5773503   0.0000000  )
        13           Au  tau(  13) = (   0.6666667   0.2886751   0.0000000  )
        14           Au  tau(  14) = (   0.3333333   0.5773503   0.0000000  )
        15           Au  tau(  15) = (   0.8333333   0.2886751   0.0000000  )
        16           Au  tau(  16) = (   0.0000000   0.8660254   0.0000000  )
        17           Au  tau(  17) = (   0.5000000   0.5773503   0.0000000  )
        18           Au  tau(  18) = (   0.1666667   0.8660254   0.0000000  )
        19           Au  tau(  19) = (   0.6666667   0.5773503   0.0000000  )
        20           Au  tau(  20) = (   0.3333333   0.8660254   0.0000000  )
        21           Au  tau(  21) = (   0.8333333   0.5773503   0.0000000  )
        22           Au  tau(  22) = (   0.5000000   0.8660254   0.0000000  )
        23           Au  tau(  23) = (   0.6666667   0.8660254   0.0000000  )
        24           Au  tau(  24) = (   0.8333333   0.8660254   0.0000000  )
        25           Au  tau(  25) = (   0.0833333   0.0481125   0.1360828  )
        26           Au  tau(  26) = (   0.2500000   0.0481125   0.1360828  )
        27           Au  tau(  27) = (   0.4166667   0.0481125   0.1360828  )
        28           Au  tau(  28) = (   0.0833333   0.3367877   0.1360828  )
        29           Au  tau(  29) = (   0.4166667   0.3367877   0.1360828  )
        30           Au  tau(  30) = (   0.5833333   0.0481125   0.1360828  )
        31           Au  tau(  31) = (   0.9166667   0.0481125   0.1360828  )
        32           Au  tau(  32) = (   0.0833333   0.6254628   0.1360828  )
        33           Au  tau(  33) = (   0.2500000   0.3367877   0.1360828  )
        34           Au  tau(  34) = (   0.2500000   0.6254628   0.1360828  )
        35           Au  tau(  35) = (   0.5833333   0.3367877   0.1360828  )
        36           Au  tau(  36) = (   0.7500000   0.0481125   0.1360828  )
        37           Au  tau(  37) = (   0.7500000   0.3367877   0.1360828  )
        38           Au  tau(  38) = (   0.1666667   0.1924501   0.1360828  )
        39           Au  tau(  39) = (   0.1666667   0.4811252   0.1360828  )
        40           Au  tau(  40) = (   0.6666667   0.1924501   0.1360828  )
        41           Au  tau(  41) = (   0.2500000   0.9141379   0.1360828  )
        42           Au  tau(  42) = (   0.4166667   0.6254628   0.1360828  )
        43           Au  tau(  43) = (   0.7500000   0.6254628   0.1360828  )
        44           Au  tau(  44) = (   0.9166667   0.3367877   0.1360828  )
        45           Au  tau(  45) = (   0.3333333   0.1924501   0.1360828  )
        46           Au  tau(  46) = (   0.5000000   0.1924501   0.1360828  )
        47           Au  tau(  47) = (   0.0833333   0.9141379   0.1360828  )
        48           Au  tau(  48) = (   0.4166667   0.9141379   0.1360828  )
        49           Au  tau(  49) = (   0.5833333   0.6254628   0.1360828  )
        50           Au  tau(  50) = (   0.5833333   0.9141379   0.1360828  )
        51           Au  tau(  51) = (   0.9166667   0.6254628   0.1360828  )
        52           Au  tau(  52) = (   0.3333333   0.4811252   0.1360828  )
        53           Au  tau(  53) = (   0.5000000   0.4811252   0.1360828  )
        54           Au  tau(  54) = (   0.5000000   0.7698003   0.1360828  )
        55           Au  tau(  55) = (   0.8333333   0.1924501   0.1360828  )
        56           Au  tau(  56) = (   1.0000000   0.1924501   0.1360828  )
        57           Au  tau(  57) = (   1.0000000   0.4811252   0.1360828  )
        58           Au  tau(  58) = (   0.7500000   0.9141379   0.1360828  )
        59           Au  tau(  59) = (   0.1666667   0.7698003   0.1360828  )
        60           Au  tau(  60) = (   0.3333333   0.7698003   0.1360828  )
        61           Au  tau(  61) = (   0.6666667   0.4811252   0.1360828  )
        62           Au  tau(  62) = (   0.8333333   0.4811252   0.1360828  )
        63           Au  tau(  63) = (   0.9166667   0.9141379   0.1360828  )
        64           Au  tau(  64) = (   0.1666667   1.0584755   0.1360828  )
        65           Au  tau(  65) = (   0.3333333   1.0584755   0.1360828  )
        66           Au  tau(  66) = (   0.6666667   0.7698003   0.1360828  )
        67           Au  tau(  67) = (   0.8333333   0.7698003   0.1360828  )
        68           Au  tau(  68) = (   0.5000000   1.0584755   0.1360828  )
        69           Au  tau(  69) = (   0.6666667   1.0584755   0.1360828  )
        70           Au  tau(  70) = (   0.8333333   1.0584755   0.1360828  )
        71           Au  tau(  71) = (   1.0000000   0.7698003   0.1360828  )
        72           Au  tau(  72) = (   1.0000000   1.0584755   0.1360828  )
        73           Au  tau(  73) = (   0.1666667   0.0962250   0.2721655  )
        74           Au  tau(  74) = (   0.4166667   0.2405626   0.2721655  )
        75           Au  tau(  75) = (   0.3333333   0.0962250   0.2721655  )
        76           Au  tau(  76) = (   0.5000000   0.0962250   0.2721655  )
        77           Au  tau(  77) = (   0.0833333   0.2405626   0.2721655  )
        78           Au  tau(  78) = (   0.2500000   0.2405626   0.2721655  )
        79           Au  tau(  79) = (   0.1666667   0.3849002   0.2721655  )
        80           Au  tau(  80) = (   0.3333333   0.3849002   0.2721655  )
        81           Au  tau(  81) = (   0.3333333   0.6735753   0.2721655  )
        82           Au  tau(  82) = (   0.3333333   0.9622505   0.2721655  )
        83           Au  tau(  83) = (   0.5000000   0.3849002   0.2721655  )
        84           Au  tau(  84) = (   0.6666667   0.0962250   0.2721655  )
        85           Au  tau(  85) = (   0.8333333   0.0962250   0.2721655  )
        86           Au  tau(  86) = (   0.8333333   0.3849002   0.2721655  )
        87           Au  tau(  87) = (   0.8333333   0.6735753   0.2721655  )
        88           Au  tau(  88) = (   1.0000000   0.0962250   0.2721655  )
        89           Au  tau(  89) = (   0.0833333   0.5292377   0.2721655  )
        90           Au  tau(  90) = (   0.0833333   0.8179129   0.2721655  )
        91           Au  tau(  91) = (   0.0833333   1.1065880   0.2721655  )
        92           Au  tau(  92) = (   0.2500000   0.5292377   0.2721655  )
        93           Au  tau(  93) = (   0.2500000   0.8179129   0.2721655  )
        94           Au  tau(  94) = (   0.5833333   0.2405626   0.2721655  )
        95           Au  tau(  95) = (   0.5833333   0.5292377   0.2721655  )
        96           Au  tau(  96) = (   0.5833333   0.8179129   0.2721655  )
        97           Au  tau(  97) = (   0.5833333   1.1065880   0.2721655  )
        98           Au  tau(  98) = (   0.7500000   0.2405626   0.2721655  )
        99           Au  tau(  99) = (   0.7500000   0.5292377   0.2721655  )
       100           Au  tau( 100) = (   0.1666667   0.6735753   0.2721655  )
       101           Au  tau( 101) = (   0.1666667   0.9622505   0.2721655  )
       102           Au  tau( 102) = (   0.5000000   0.6735753   0.2721655  )
       103           Au  tau( 103) = (   0.5000000   0.9622505   0.2721655  )
       104           Au  tau( 104) = (   0.6666667   0.3849002   0.2721655  )
       105           Au  tau( 105) = (   0.6666667   0.6735753   0.2721655  )
       106           Au  tau( 106) = (   0.6666667   0.9622505   0.2721655  )
       107           Au  tau( 107) = (   1.0000000   0.3849002   0.2721655  )
       108           Au  tau( 108) = (   1.0000000   0.6735753   0.2721655  )
       109           Au  tau( 109) = (   0.2500000   1.1065880   0.2721655  )
       110           Au  tau( 110) = (   0.4166667   0.5292377   0.2721655  )
       111           Au  tau( 111) = (   0.4166667   0.8179129   0.2721655  )
       112           Au  tau( 112) = (   0.4166667   1.1065880   0.2721655  )
       113           Au  tau( 113) = (   0.7500000   0.8179129   0.2721655  )
       114           Au  tau( 114) = (   0.9166667   0.2405626   0.2721655  )
       115           Au  tau( 115) = (   0.9166667   0.5292377   0.2721655  )
       116           Au  tau( 116) = (   0.9166667   0.8179129   0.2721655  )
       117           Au  tau( 117) = (   0.8333333   0.9622505   0.2721655  )
       118           Au  tau( 118) = (   1.0000000   0.9622505   0.2721655  )
       119           Au  tau( 119) = (   0.7500000   1.1065880   0.2721655  )
       120           Au  tau( 120) = (   0.9166667   1.1065880   0.2721655  )
       121           Au  tau( 121) = (   0.4166667   0.1443376   0.4082483  )
       122           Au  tau( 122) = (   0.0000000   0.0000000   0.4082483  )
       123           Au  tau( 123) = (   0.1666667   0.0000000   0.4082483  )
       124           Au  tau( 124) = (   0.3333333   0.0000000   0.4082483  )
       125           Au  tau( 125) = (   0.0833333   0.1443376   0.4082483  )
       126           Au  tau( 126) = (   0.0000000   0.5773503   0.4082483  )
       127           Au  tau( 127) = (   0.1666667   0.2886751   0.4082483  )
       128           Au  tau( 128) = (   0.1666667   0.5773503   0.4082483  )
       129           Au  tau( 129) = (   0.3333333   0.2886751   0.4082483  )
       130           Au  tau( 130) = (   0.5000000   0.2886751   0.4082483  )
       131           Au  tau( 131) = (   0.6666667   0.0000000   0.4082483  )
       132           Au  tau( 132) = (   0.6666667   0.2886751   0.4082483  )
       133           Au  tau( 133) = (   0.8333333   0.0000000   0.4082483  )
       134           Au  tau( 134) = (   0.0833333   0.4330127   0.4082483  )
       135           Au  tau( 135) = (   0.2500000   0.1443376   0.4082483  )
       136           Au  tau( 136) = (   0.2500000   0.4330127   0.4082483  )
       137           Au  tau( 137) = (   0.4166667   0.4330127   0.4082483  )
       138           Au  tau( 138) = (   0.5833333   0.1443376   0.4082483  )
       139           Au  tau( 139) = (   0.7500000   0.1443376   0.4082483  )
       140           Au  tau( 140) = (   0.9166667   0.1443376   0.4082483  )
       141           Au  tau( 141) = (   0.0000000   0.2886751   0.4082483  )
       142           Au  tau( 142) = (   0.1666667   0.8660254   0.4082483  )
       143           Au  tau( 143) = (   0.3333333   0.8660254   0.4082483  )
       144           Au  tau( 144) = (   0.5000000   0.0000000   0.4082483  )
       145           Au  tau( 145) = (   0.5000000   0.8660254   0.4082483  )
       146           Au  tau( 146) = (   0.6666667   0.5773503   0.4082483  )
       147           Au  tau( 147) = (   0.8333333   0.5773503   0.4082483  )
       148           Au  tau( 148) = (   0.0833333   0.7216879   0.4082483  )
       149           Au  tau( 149) = (   0.0833333   1.0103630   0.4082483  )
       150           Au  tau( 150) = (   0.2500000   0.7216879   0.4082483  )
       151           Au  tau( 151) = (   0.2500000   1.0103630   0.4082483  )
       152           Au  tau( 152) = (   0.4166667   0.7216879   0.4082483  )
       153           Au  tau( 153) = (   0.5833333   0.4330127   0.4082483  )
       154           Au  tau( 154) = (   0.5833333   0.7216879   0.4082483  )
       155           Au  tau( 155) = (   0.7500000   0.4330127   0.4082483  )
       156           Au  tau( 156) = (   0.7500000   0.7216879   0.4082483  )
       157           Au  tau( 157) = (   0.9166667   0.4330127   0.4082483  )
       158           Au  tau( 158) = (   0.0000000   0.8660254   0.4082483  )
       159           Au  tau( 159) = (   0.3333333   0.5773503   0.4082483  )
       160           Au  tau( 160) = (   0.5000000   0.5773503   0.4082483  )
       161           Au  tau( 161) = (   0.6666667   0.8660254   0.4082483  )
       162           Au  tau( 162) = (   0.8333333   0.2886751   0.4082483  )
       163           Au  tau( 163) = (   0.8333333   0.8660254   0.4082483  )
       164           Au  tau( 164) = (   0.4166667   1.0103630   0.4082483  )
       165           Au  tau( 165) = (   0.5833333   1.0103630   0.4082483  )
       166           Au  tau( 166) = (   0.7500000   1.0103630   0.4082483  )
       167           Au  tau( 167) = (   0.9166667   0.7216879   0.4082483  )
       168           Au  tau( 168) = (   0.9166667   1.0103630   0.4082483  )
       169           Au  tau( 169) = (   0.0833333   0.3367877   0.5443311  )
       170           Au  tau( 170) = (   0.5833333   0.0481125   0.5443311  )
       171           Au  tau( 171) = (   0.3333333   0.1924501   0.5443311  )
       172           Au  tau( 172) = (   0.0833333   0.0481125   0.5443311  )
       173           Au  tau( 173) = (   0.2500000   0.0481125   0.5443311  )
       174           Au  tau( 174) = (   0.2500000   0.3367877   0.5443311  )
       175           Au  tau( 175) = (   0.4166667   0.0481125   0.5443311  )
       176           Au  tau( 176) = (   0.7500000   0.0481125   0.5443311  )
       177           Au  tau( 177) = (   0.1666667   0.1924501   0.5443311  )
       178           Au  tau( 178) = (   0.1666667   0.4811252   0.5443311  )
       179           Au  tau( 179) = (   0.3333333   0.4811252   0.5443311  )
       180           Au  tau( 180) = (   0.5000000   0.1924501   0.5443311  )
       181           Au  tau( 181) = (   0.6666667   0.1924501   0.5443311  )
       182           Au  tau( 182) = (   0.8333333   0.1924501   0.5443311  )
       183           Au  tau( 183) = (   0.0833333   0.6254628   0.5443311  )
       184           Au  tau( 184) = (   0.0833333   0.9141379   0.5443311  )
       185           Au  tau( 185) = (   0.2500000   0.6254628   0.5443311  )
       186           Au  tau( 186) = (   0.2500000   0.9141379   0.5443311  )
       187           Au  tau( 187) = (   0.4166667   0.3367877   0.5443311  )
       188           Au  tau( 188) = (   0.4166667   0.6254628   0.5443311  )
       189           Au  tau( 189) = (   0.4166667   0.9141379   0.5443311  )
       190           Au  tau( 190) = (   0.5833333   0.3367877   0.5443311  )
       191           Au  tau( 191) = (   0.5833333   0.6254628   0.5443311  )
       192           Au  tau( 192) = (   0.5833333   0.9141379   0.5443311  )
       193           Au  tau( 193) = (   0.7500000   0.3367877   0.5443311  )
       194           Au  tau( 194) = (   0.7500000   0.6254628   0.5443311  )
       195           Au  tau( 195) = (   0.7500000   0.9141379   0.5443311  )
       196           Au  tau( 196) = (   0.9166667   0.0481125   0.5443311  )
       197           Au  tau( 197) = (   0.9166667   0.3367877   0.5443311  )
       198           Au  tau( 198) = (   0.9166667   0.6254628   0.5443311  )
       199           Au  tau( 199) = (   0.1666667   0.7698003   0.5443311  )
       200           Au  tau( 200) = (   0.1666667   1.0584755   0.5443311  )
       201           Au  tau( 201) = (   0.3333333   0.7698003   0.5443311  )
       202           Au  tau( 202) = (   0.3333333   1.0584755   0.5443311  )
       203           Au  tau( 203) = (   0.5000000   0.4811252   0.5443311  )
       204           Au  tau( 204) = (   0.5000000   0.7698003   0.5443311  )
       205           Au  tau( 205) = (   0.5000000   1.0584755   0.5443311  )
       206           Au  tau( 206) = (   0.6666667   0.4811252   0.5443311  )
       207           Au  tau( 207) = (   0.6666667   0.7698003   0.5443311  )
       208           Au  tau( 208) = (   0.8333333   0.4811252   0.5443311  )
       209           Au  tau( 209) = (   0.8333333   0.7698003   0.5443311  )
       210           Au  tau( 210) = (   1.0000000   0.1924501   0.5443311  )
       211           Au  tau( 211) = (   1.0000000   0.4811252   0.5443311  )
       212           Au  tau( 212) = (   1.0000000   0.7698003   0.5443311  )
       213           Au  tau( 213) = (   1.0000000   1.0584755   0.5443311  )
       214           Au  tau( 214) = (   0.9166667   0.9141379   0.5443311  )
       215           Au  tau( 215) = (   0.6666667   1.0584755   0.5443311  )
       216           Au  tau( 216) = (   0.8333333   1.0584755   0.5443311  )
       217           Au  tau( 217) = (   0.1666667   0.0962250   0.6804138  )
       218           Au  tau( 218) = (   0.3333333   0.0962250   0.6804138  )
       219           Au  tau( 219) = (   0.5000000   0.0962250   0.6804138  )
       220           Au  tau( 220) = (   0.0833333   0.2405626   0.6804138  )
       221           Au  tau( 221) = (   0.2500000   0.2405626   0.6804138  )
       222           Au  tau( 222) = (   0.2500000   0.5292377   0.6804138  )
       223           Au  tau( 223) = (   0.7500000   0.2405626   0.6804138  )
       224           Au  tau( 224) = (   0.1666667   0.3849002   0.6804138  )
       225           Au  tau( 225) = (   0.1666667   0.6735753   0.6804138  )
       226           Au  tau( 226) = (   0.1666667   0.9622505   0.6804138  )
       227           Au  tau( 227) = (   0.3333333   0.3849002   0.6804138  )
       228           Au  tau( 228) = (   0.3333333   0.6735753   0.6804138  )
       229           Au  tau( 229) = (   0.3333333   0.9622505   0.6804138  )
       230           Au  tau( 230) = (   0.5000000   0.3849002   0.6804138  )
       231           Au  tau( 231) = (   0.5000000   0.6735753   0.6804138  )
       232           Au  tau( 232) = (   0.5000000   0.9622505   0.6804138  )
       233           Au  tau( 233) = (   0.6666667   0.0962250   0.6804138  )
       234           Au  tau( 234) = (   0.6666667   0.3849002   0.6804138  )
       235           Au  tau( 235) = (   0.6666667   0.6735753   0.6804138  )
       236           Au  tau( 236) = (   0.6666667   0.9622505   0.6804138  )
       237           Au  tau( 237) = (   0.8333333   0.0962250   0.6804138  )
       238           Au  tau( 238) = (   0.8333333   0.3849002   0.6804138  )
       239           Au  tau( 239) = (   0.8333333   0.6735753   0.6804138  )
       240           Au  tau( 240) = (   1.0000000   0.0962250   0.6804138  )
       241           Au  tau( 241) = (   1.0000000   0.3849002   0.6804138  )
       242           Au  tau( 242) = (   1.0000000   0.6735753   0.6804138  )
       243           Au  tau( 243) = (   0.0833333   0.5292377   0.6804138  )
       244           Au  tau( 244) = (   0.0833333   0.8179129   0.6804138  )
       245           Au  tau( 245) = (   0.0833333   1.1065880   0.6804138  )
       246           Au  tau( 246) = (   0.2500000   0.8179129   0.6804138  )
       247           Au  tau( 247) = (   0.2500000   1.1065880   0.6804138  )
       248           Au  tau( 248) = (   0.4166667   0.2405626   0.6804138  )
       249           Au  tau( 249) = (   0.4166667   0.5292377   0.6804138  )
       250           Au  tau( 250) = (   0.4166667   0.8179129   0.6804138  )
       251           Au  tau( 251) = (   0.4166667   1.1065880   0.6804138  )
       252           Au  tau( 252) = (   0.5833333   0.2405626   0.6804138  )
       253           Au  tau( 253) = (   0.5833333   0.5292377   0.6804138  )
       254           Au  tau( 254) = (   0.5833333   0.8179129   0.6804138  )
       255           Au  tau( 255) = (   0.7500000   0.5292377   0.6804138  )
       256           Au  tau( 256) = (   0.7500000   0.8179129   0.6804138  )
       257           Au  tau( 257) = (   0.9166667   0.2405626   0.6804138  )
       258           Au  tau( 258) = (   0.9166667   0.5292377   0.6804138  )
       259           Au  tau( 259) = (   0.9166667   0.8179129   0.6804138  )
       260           Au  tau( 260) = (   0.8333333   0.9622505   0.6804138  )
       261           Au  tau( 261) = (   1.0000000   0.9622505   0.6804138  )
       262           Au  tau( 262) = (   0.5833333   1.1065880   0.6804138  )
       263           Au  tau( 263) = (   0.7500000   1.1065880   0.6804138  )
       264           Au  tau( 264) = (   0.9166667   1.1065880   0.6804138  )
       265           Au  tau( 265) = (   0.0000000   0.0000000   0.8164966  )
       266           Au  tau( 266) = (   0.0000000   0.2886751   0.8164966  )
       267           Au  tau( 267) = (   0.1666667   0.0000000   0.8164966  )
       268           Au  tau( 268) = (   0.1666667   0.2886751   0.8164966  )
       269           Au  tau( 269) = (   0.3333333   0.0000000   0.8164966  )
       270           Au  tau( 270) = (   0.5000000   0.0000000   0.8164966  )
       271           Au  tau( 271) = (   0.6666667   0.0000000   0.8164966  )
       272           Au  tau( 272) = (   0.0833333   0.1443376   0.8164966  )
       273           Au  tau( 273) = (   0.2500000   0.1443376   0.8164966  )
       274           Au  tau( 274) = (   0.4166667   0.1443376   0.8164966  )
       275           Au  tau( 275) = (   0.0000000   0.8660254   0.8164966  )
       276           Au  tau( 276) = (   0.1666667   0.5773503   0.8164966  )
       277           Au  tau( 277) = (   0.1666667   0.8660254   0.8164966  )
       278           Au  tau( 278) = (   0.3333333   0.5773503   0.8164966  )
       279           Au  tau( 279) = (   0.3333333   0.8660254   0.8164966  )
       280           Au  tau( 280) = (   0.5000000   0.5773503   0.8164966  )
       281           Au  tau( 281) = (   0.5000000   0.8660254   0.8164966  )
       282           Au  tau( 282) = (   0.6666667   0.2886751   0.8164966  )
       283           Au  tau( 283) = (   0.6666667   0.5773503   0.8164966  )
       284           Au  tau( 284) = (   0.6666667   0.8660254   0.8164966  )
       285           Au  tau( 285) = (   0.8333333   0.2886751   0.8164966  )
       286           Au  tau( 286) = (   0.8333333   0.5773503   0.8164966  )
       287           Au  tau( 287) = (   0.8333333   0.8660254   0.8164966  )
       288           Au  tau( 288) = (   0.0833333   0.4330127   0.8164966  )
       289           Au  tau( 289) = (   0.0833333   0.7216879   0.8164966  )
       290           Au  tau( 290) = (   0.0833333   1.0103630   0.8164966  )
       291           Au  tau( 291) = (   0.2500000   0.4330127   0.8164966  )
       292           Au  tau( 292) = (   0.2500000   0.7216879   0.8164966  )
       293           Au  tau( 293) = (   0.2500000   1.0103630   0.8164966  )
       294           Au  tau( 294) = (   0.4166667   0.4330127   0.8164966  )
       295           Au  tau( 295) = (   0.4166667   0.7216879   0.8164966  )
       296           Au  tau( 296) = (   0.4166667   1.0103630   0.8164966  )
       297           Au  tau( 297) = (   0.5833333   0.1443376   0.8164966  )
       298           Au  tau( 298) = (   0.5833333   0.4330127   0.8164966  )
       299           Au  tau( 299) = (   0.5833333   0.7216879   0.8164966  )
       300           Au  tau( 300) = (   0.5833333   1.0103630   0.8164966  )
       301           Au  tau( 301) = (   0.7500000   0.1443376   0.8164966  )
       302           Au  tau( 302) = (   0.7500000   0.4330127   0.8164966  )
       303           Au  tau( 303) = (   0.7500000   0.7216879   0.8164966  )
       304           Au  tau( 304) = (   0.9166667   0.1443376   0.8164966  )
       305           Au  tau( 305) = (   0.9166667   0.4330127   0.8164966  )
       306           Au  tau( 306) = (   0.9166667   0.7216879   0.8164966  )
       307           Au  tau( 307) = (   0.0000000   0.5773503   0.8164966  )
       308           Au  tau( 308) = (   0.3333333   0.2886751   0.8164966  )
       309           Au  tau( 309) = (   0.5000000   0.2886751   0.8164966  )
       310           Au  tau( 310) = (   0.8333333   0.0000000   0.8164966  )
       311           Au  tau( 311) = (   0.7500000   1.0103630   0.8164966  )
       312           Au  tau( 312) = (   0.9166667   1.0103630   0.8164966  )
       313           Au  tau( 313) = (   0.0833333   0.6254628   0.9525793  )
       314           Au  tau( 314) = (   0.2500000   0.6254628   0.9525793  )
       315           Au  tau( 315) = (   0.4166667   0.6254628   0.9525793  )
       316           Au  tau( 316) = (   0.5833333   0.3367877   0.9525793  )
       317           Au  tau( 317) = (   0.7500000   0.3367877   0.9525793  )
       318           Au  tau( 318) = (   0.9166667   0.3367877   0.9525793  )
       319           Au  tau( 319) = (   0.1666667   0.7698003   0.9525793  )
       320           Au  tau( 320) = (   0.3333333   0.4811252   0.9525793  )
       321           Au  tau( 321) = (   0.5000000   0.4811252   0.9525793  )
       322           Au  tau( 322) = (   0.6666667   0.4811252   0.9525793  )
       323           Au  tau( 323) = (   0.8333333   0.1924501   0.9525793  )
       324           Au  tau( 324) = (   1.0000000   0.1924501   0.9525793  )
       325           Au  tau( 325) = (   0.0833333   0.0481125   0.9525793  )
       326           Au  tau( 326) = (   0.0833333   0.3367877   0.9525793  )
       327           Au  tau( 327) = (   0.0833333   0.9141379   0.9525793  )
       328           Au  tau( 328) = (   0.2500000   0.0481125   0.9525793  )
       329           Au  tau( 329) = (   0.2500000   0.3367877   0.9525793  )
       330           Au  tau( 330) = (   0.4166667   0.0481125   0.9525793  )
       331           Au  tau( 331) = (   0.4166667   0.3367877   0.9525793  )
       332           Au  tau( 332) = (   0.5833333   0.0481125   0.9525793  )
       333           Au  tau( 333) = (   0.5833333   0.6254628   0.9525793  )
       334           Au  tau( 334) = (   0.7500000   0.0481125   0.9525793  )
       335           Au  tau( 335) = (   0.9166667   0.0481125   0.9525793  )
       336           Au  tau( 336) = (   0.1666667   0.1924501   0.9525793  )
       337           Au  tau( 337) = (   0.1666667   0.4811252   0.9525793  )
       338           Au  tau( 338) = (   0.1666667   1.0584755   0.9525793  )
       339           Au  tau( 339) = (   0.3333333   0.1924501   0.9525793  )
       340           Au  tau( 340) = (   0.3333333   0.7698003   0.9525793  )
       341           Au  tau( 341) = (   0.5000000   0.1924501   0.9525793  )
       342           Au  tau( 342) = (   0.5000000   0.7698003   0.9525793  )
       343           Au  tau( 343) = (   0.6666667   0.1924501   0.9525793  )
       344           Au  tau( 344) = (   0.6666667   0.7698003   0.9525793  )
       345           Au  tau( 345) = (   0.8333333   0.4811252   0.9525793  )
       346           Au  tau( 346) = (   1.0000000   0.4811252   0.9525793  )
       347           Au  tau( 347) = (   0.2500000   0.9141379   0.9525793  )
       348           Au  tau( 348) = (   0.4166667   0.9141379   0.9525793  )
       349           Au  tau( 349) = (   0.5833333   0.9141379   0.9525793  )
       350           Au  tau( 350) = (   0.7500000   0.6254628   0.9525793  )
       351           Au  tau( 351) = (   0.7500000   0.9141379   0.9525793  )
       352           Au  tau( 352) = (   0.9166667   0.6254628   0.9525793  )
       353           Au  tau( 353) = (   0.9166667   0.9141379   0.9525793  )
       354           Au  tau( 354) = (   0.3333333   1.0584755   0.9525793  )
       355           Au  tau( 355) = (   0.5000000   1.0584755   0.9525793  )
       356           Au  tau( 356) = (   0.6666667   1.0584755   0.9525793  )
       357           Au  tau( 357) = (   0.8333333   0.7698003   0.9525793  )
       358           Au  tau( 358) = (   0.8333333   1.0584755   0.9525793  )
       359           Au  tau( 359) = (   1.0000000   0.7698003   0.9525793  )
       360           Au  tau( 360) = (   1.0000000   1.0584755   0.9525793  )
       361           Au  tau( 361) = (   0.1666667   0.6735753   1.0886621  )
       362           Au  tau( 362) = (   0.3333333   0.6735753   1.0886621  )
       363           Au  tau( 363) = (   0.5000000   0.3849002   1.0886621  )
       364           Au  tau( 364) = (   0.6666667   0.3849002   1.0886621  )
       365           Au  tau( 365) = (   0.8333333   0.3849002   1.0886621  )
       366           Au  tau( 366) = (   1.0000000   0.0962250   1.0886621  )
       367           Au  tau( 367) = (   0.0833333   0.8179129   1.0886621  )
       368           Au  tau( 368) = (   0.2500000   0.5292377   1.0886621  )
       369           Au  tau( 369) = (   0.4166667   0.5292377   1.0886621  )
       370           Au  tau( 370) = (   0.5833333   0.5292377   1.0886621  )
       371           Au  tau( 371) = (   0.7500000   0.2405626   1.0886621  )
       372           Au  tau( 372) = (   0.9166667   0.2405626   1.0886621  )
       373           Au  tau( 373) = (   0.1666667   0.0962250   1.0886621  )
       374           Au  tau( 374) = (   0.1666667   0.3849002   1.0886621  )
       375           Au  tau( 375) = (   0.1666667   0.9622505   1.0886621  )
       376           Au  tau( 376) = (   0.3333333   0.0962250   1.0886621  )
       377           Au  tau( 377) = (   0.3333333   0.3849002   1.0886621  )
       378           Au  tau( 378) = (   0.5000000   0.0962250   1.0886621  )
       379           Au  tau( 379) = (   0.5000000   0.6735753   1.0886621  )
       380           Au  tau( 380) = (   0.6666667   0.0962250   1.0886621  )
       381           Au  tau( 381) = (   0.6666667   0.6735753   1.0886621  )
       382           Au  tau( 382) = (   0.8333333   0.0962250   1.0886621  )
       383           Au  tau( 383) = (   1.0000000   0.3849002   1.0886621  )
       384           Au  tau( 384) = (   0.0833333   0.2405626   1.0886621  )
       385           Au  tau( 385) = (   0.0833333   0.5292377   1.0886621  )
       386           Au  tau( 386) = (   0.0833333   1.1065880   1.0886621  )
       387           Au  tau( 387) = (   0.2500000   0.2405626   1.0886621  )
       388           Au  tau( 388) = (   0.2500000   0.8179129   1.0886621  )
       389           Au  tau( 389) = (   0.4166667   0.2405626   1.0886621  )
       390           Au  tau( 390) = (   0.4166667   0.8179129   1.0886621  )
       391           Au  tau( 391) = (   0.5833333   0.2405626   1.0886621  )
       392           Au  tau( 392) = (   0.5833333   0.8179129   1.0886621  )
       393           Au  tau( 393) = (   0.7500000   0.5292377   1.0886621  )
       394           Au  tau( 394) = (   0.9166667   0.5292377   1.0886621  )
       395           Au  tau( 395) = (   0.3333333   0.9622505   1.0886621  )
       396           Au  tau( 396) = (   0.5000000   0.9622505   1.0886621  )
       397           Au  tau( 397) = (   0.6666667   0.9622505   1.0886621  )
       398           Au  tau( 398) = (   0.8333333   0.6735753   1.0886621  )
       399           Au  tau( 399) = (   0.8333333   0.9622505   1.0886621  )
       400           Au  tau( 400) = (   1.0000000   0.6735753   1.0886621  )
       401           Au  tau( 401) = (   1.0000000   0.9622505   1.0886621  )
       402           Au  tau( 402) = (   0.2500000   1.1065880   1.0886621  )
       403           Au  tau( 403) = (   0.4166667   1.1065880   1.0886621  )
       404           Au  tau( 404) = (   0.5833333   1.1065880   1.0886621  )
       405           Au  tau( 405) = (   0.7500000   0.8179129   1.0886621  )
       406           Au  tau( 406) = (   0.7500000   1.1065880   1.0886621  )
       407           Au  tau( 407) = (   0.9166667   0.8179129   1.0886621  )
       408           Au  tau( 408) = (   0.9166667   1.1065880   1.0886621  )
       409           Au  tau( 409) = (   0.0833333   0.7216879   1.2247449  )
       410           Au  tau( 410) = (   0.2500000   0.7216879   1.2247449  )
       411           Au  tau( 411) = (   0.4166667   0.4330127   1.2247449  )
       412           Au  tau( 412) = (   0.5833333   0.4330127   1.2247449  )
       413           Au  tau( 413) = (   0.7500000   0.4330127   1.2247449  )
       414           Au  tau( 414) = (   0.9166667   0.1443376   1.2247449  )
       415           Au  tau( 415) = (   0.0833333   0.1443376   1.2247449  )
       416           Au  tau( 416) = (   0.0833333   0.4330127   1.2247449  )
       417           Au  tau( 417) = (   0.0833333   1.0103630   1.2247449  )
       418           Au  tau( 418) = (   0.2500000   0.1443376   1.2247449  )
       419           Au  tau( 419) = (   0.2500000   0.4330127   1.2247449  )
       420           Au  tau( 420) = (   0.4166667   0.1443376   1.2247449  )
       421           Au  tau( 421) = (   0.4166667   0.7216879   1.2247449  )
       422           Au  tau( 422) = (   0.5833333   0.1443376   1.2247449  )
       423           Au  tau( 423) = (   0.5833333   0.7216879   1.2247449  )
       424           Au  tau( 424) = (   0.7500000   0.1443376   1.2247449  )
       425           Au  tau( 425) = (   0.9166667   0.4330127   1.2247449  )
       426           Au  tau( 426) = (   0.5833333   1.0103630   1.2247449  )
       427           Au  tau( 427) = (   0.7500000   1.0103630   1.2247449  )
       428           Au  tau( 428) = (   0.9166667   1.0103630   1.2247449  )
       429           Au  tau( 429) = (   0.2500000   1.0103630   1.2247449  )
       430           Au  tau( 430) = (   0.4166667   1.0103630   1.2247449  )
       431           Au  tau( 431) = (   0.7500000   0.7216879   1.2247449  )
       432           Au  tau( 432) = (   0.9166667   0.7216879   1.2247449  )

     number of k points=     4  Marzari-Vanderbilt smearing, width (Ry)=  0.0500
                       cart. coord. in units 2pi/alat
        k(    1) = (   0.1250000   0.1082532   0.0000000), wk =   0.5000000
        k(    2) = (   0.1250000   0.3247595   0.0000000), wk =   0.5000000
        k(    3) = (   0.3750000   0.1082532   0.0000000), wk =   0.5000000
        k(    4) = (   0.3750000   0.3247595   0.0000000), wk =   0.5000000

     Dense  grid:  8550627 G-vectors     FFT dimensions: ( 200, 240, 360)

     Smooth grid:  2643085 G-vectors     FFT dimensions: ( 135, 160, 243)

     Estimated max dynamical RAM per process >       3.00 GB

     Estimated total dynamical RAM >     575.81 GB

     Initial potential from superposition of free atoms

     starting charge 4746.98365, renormalised to 4752.00000

     negative rho (up, down):  1.152E+01 0.000E+00
     Starting wfcs are 3888 randomized atomic wfcs

     total cpu time spent up to now is       51.5 secs

     Self-consistent Calculation

     iteration #  1     ecut=    40.00 Ry     beta= 0.70
     Davidson diagonalization with overlap
     ethr =  1.00E-02,  avg # of iterations =  3.0

     Threshold (ethr) on eigenvalues was too large:
     Diagonalizing with lowered threshold

     Davidson diagonalization with overlap
     ethr =  3.34E-04,  avg # of iterations =  3.5

     negative rho (up, down):  1.095E+01 0.000E+00

     total cpu time spent up to now is      298.3 secs

     total energy              =  -44077.60663687 Ry
     estimated scf accuracy    <      18.95517504 Ry

     iteration #  2     ecut=    40.00 Ry     beta= 0.70
     Davidson diagonalization with overlap
     ethr =  3.99E-04,  avg # of iterations =  1.2

     negative rho (up, down):  1.157E+01 0.000E+00

     total cpu time spent up to now is      402.6 secs

     total energy              =  -44078.47277095 Ry
     estimated scf accuracy    <       8.44523173 Ry

     iteration #  3     ecut=    40.00 Ry     beta= 0.70
     Davidson diagonalization with overlap
     ethr =  1.78E-04,  avg # of iterations =  3.8

     negative rho (up, down):  1.215E+01 0.000E+00

     total cpu time spent up to now is      521.5 secs

     total energy              =  -44078.42260533 Ry
     estimated scf accuracy    <       4.94676973 Ry

     iteration #  4     ecut=    40.00 Ry     beta= 0.70
     Davidson diagonalization with overlap
     ethr =  1.04E-04,  avg # of iterations = 18.0

     negative rho (up, down):  1.214E+01 0.000E+00

     total cpu time spent up to now is      796.9 secs

     total energy              =  -44078.34589690 Ry
     estimated scf accuracy    <       2.42280175 Ry

     iteration #  5     ecut=    40.00 Ry     beta= 0.70
     Davidson diagonalization with overlap
     ethr =  5.10E-05,  avg # of iterations = 17.8

     negative rho (up, down):  1.185E+01 0.000E+00

     total cpu time spent up to now is      952.3 secs

     total energy              =  -44078.30780358 Ry
     estimated scf accuracy    <       1.48563789 Ry

     iteration #  6     ecut=    40.00 Ry     beta= 0.70
     Davidson diagonalization with overlap
     c_bands:  2 eigenvalues not converged
     ethr =  3.13E-05,  avg # of iterations = 16.0

     negative rho (up, down):  1.186E+01 0.000E+00

     total cpu time spent up to now is     1099.5 secs

     total energy              =  -44078.27766093 Ry
     estimated scf accuracy    <       1.43173267 Ry

     iteration #  7     ecut=    40.00 Ry     beta= 0.70
     Davidson diagonalization with overlap
     ethr =  3.01E-05,  avg # of iterations =  2.8

     negative rho (up, down):  1.180E+01 0.000E+00

     total cpu time spent up to now is     1212.3 secs

     total energy              =  -44078.34700091 Ry
     estimated scf accuracy    <       1.48235965 Ry

     iteration #  8     ecut=    40.00 Ry     beta= 0.70
     Davidson diagonalization with overlap
     ethr =  3.01E-05,  avg # of iterations =  1.0

     negative rho (up, down):  1.176E+01 0.000E+00

     total cpu time spent up to now is     1303.3 secs

     total energy              =  -44078.45715136 Ry
     estimated scf accuracy    <       1.39660263 Ry

     iteration #  9     ecut=    40.00 Ry     beta= 0.70
     Davidson diagonalization with overlap
     ethr =  2.94E-05,  avg # of iterations =  3.5

     negative rho (up, down):  1.220E+01 0.000E+00

     total cpu time spent up to now is     1422.8 secs

     total energy              =  -44077.60771754 Ry
     estimated scf accuracy    <       4.86616226 Ry

     iteration # 10     ecut=    40.00 Ry     beta= 0.70
     Davidson diagonalization with overlap
     c_bands:  3 eigenvalues not converged
     ethr =  2.94E-05,  avg # of iterations = 19.8

     negative rho (up, down):  1.246E+01 0.000E+00

     total cpu time spent up to now is     1654.8 secs

     total energy              =  -44078.84747407 Ry
     estimated scf accuracy    <       6.49908020 Ry

     iteration # 11     ecut=    40.00 Ry     beta= 0.70
     Davidson diagonalization with overlap
     ethr =  2.94E-05,  avg # of iterations =  9.8

     negative rho (up, down):  1.254E+01 0.000E+00

     total cpu time spent up to now is     1784.8 secs

     total energy              =  -44078.67784258 Ry
     estimated scf accuracy    <      10.55598216 Ry

     iteration # 12     ecut=    40.00 Ry     beta= 0.70
     Davidson diagonalization with overlap
     ethr =  2.94E-05,  avg # of iterations =  1.5

     negative rho (up, down):  1.254E+01 0.000E+00

     total cpu time spent up to now is     1889.9 secs

     total energy              =  -44078.61192990 Ry
     estimated scf accuracy    <       7.43303093 Ry

     iteration # 13     ecut=    40.00 Ry     beta= 0.70
     Davidson diagonalization with overlap
     ethr =  2.94E-05,  avg # of iterations =  1.0

     negative rho (up, down):  1.237E+01 0.000E+00

     total cpu time spent up to now is     1981.9 secs

     total energy              =  -44077.93377705 Ry
     estimated scf accuracy    <       6.36201471 Ry

     iteration # 14     ecut=    40.00 Ry     beta= 0.70
     Davidson diagonalization with overlap
     ethr =  2.94E-05,  avg # of iterations =  5.5

     negative rho (up, down):  1.249E+01 0.000E+00

     total cpu time spent up to now is     2111.4 secs

     total energy              =  -44078.16796053 Ry
     estimated scf accuracy    <       0.28053722 Ry

     iteration # 15     ecut=    40.00 Ry     beta= 0.70
     Davidson diagonalization with overlap
     ethr =  5.90E-06,  avg # of iterations = 18.5

     negative rho (up, down):  1.212E+01 0.000E+00

     total cpu time spent up to now is     2278.4 secs

     total energy              =  -44078.07097112 Ry
     estimated scf accuracy    <       0.59751623 Ry

     iteration # 16     ecut=    40.00 Ry     beta= 0.70
     Davidson diagonalization with overlap
     ethr =  5.90E-06,  avg # of iterations = 12.5

     negative rho (up, down):  1.197E+01 0.000E+00

     total cpu time spent up to now is     2523.7 secs

     total energy              =  -44078.21191008 Ry
     estimated scf accuracy    <       0.36640213 Ry

     iteration # 17     ecut=    40.00 Ry     beta= 0.70
     Davidson diagonalization with overlap
     ethr =  5.90E-06,  avg # of iterations =  2.0

     negative rho (up, down):  1.200E+01 0.000E+00

     total cpu time spent up to now is     2632.1 secs

     total energy              =  -44078.16405367 Ry
     estimated scf accuracy    <       0.53255336 Ry

     iteration # 18     ecut=    40.00 Ry     beta= 0.70
     Davidson diagonalization with overlap
     ethr =  5.90E-06,  avg # of iterations =  4.8

     negative rho (up, down):  1.189E+01 0.000E+00

     total cpu time spent up to now is     2753.4 secs

     total energy              =  -44078.14454568 Ry
     estimated scf accuracy    <       0.33278126 Ry

     iteration # 19     ecut=    40.00 Ry     beta= 0.70
     Davidson diagonalization with overlap
     ethr =  5.90E-06,  avg # of iterations =  4.5

     negative rho (up, down):  1.182E+01 0.000E+00

     total cpu time spent up to now is     2868.1 secs

     total energy              =  -44078.13950100 Ry
     estimated scf accuracy    <       0.11755556 Ry

     iteration # 20     ecut=    40.00 Ry     beta= 0.70
     Davidson diagonalization with overlap
     ethr =  2.47E-06,  avg # of iterations = 14.5

     negative rho (up, down):  1.177E+01 0.000E+00

     total cpu time spent up to now is     3092.9 secs

     total energy              =  -44078.13871685 Ry
     estimated scf accuracy    <       0.02858308 Ry

     iteration # 21     ecut=    40.00 Ry     beta= 0.70
     Davidson diagonalization with overlap
     ethr =  6.01E-07,  avg # of iterations = 11.0

     negative rho (up, down):  1.176E+01 0.000E+00

     total cpu time spent up to now is     3230.5 secs

     total energy              =  -44078.13985921 Ry
     estimated scf accuracy    <       0.00114153 Ry

     iteration # 22     ecut=    40.00 Ry     beta= 0.70
     Davidson diagonalization with overlap
     ethr =  2.40E-08,  avg # of iterations =  6.5

     negative rho (up, down):  1.176E+01 0.000E+00

     total cpu time spent up to now is     3376.3 secs

     total energy              =  -44078.14010723 Ry
     estimated scf accuracy    <       0.00021960 Ry

     iteration # 23     ecut=    40.00 Ry     beta= 0.70
     Davidson diagonalization with overlap
     ethr =  4.62E-09,  avg # of iterations =  2.2

     negative rho (up, down):  1.175E+01 0.000E+00

     total cpu time spent up to now is     3486.4 secs

     total energy              =  -44078.14017691 Ry
     estimated scf accuracy    <       0.00009061 Ry

     iteration # 24     ecut=    40.00 Ry     beta= 0.70
     Davidson diagonalization with overlap
     ethr =  1.91E-09,  avg # of iterations =  3.0

     negative rho (up, down):  1.175E+01 0.000E+00

     total cpu time spent up to now is     3598.7 secs

     total energy              =  -44078.14018672 Ry
     estimated scf accuracy    <       0.00001723 Ry

     iteration # 25     ecut=    40.00 Ry     beta= 0.70
     Davidson diagonalization with overlap
     ethr =  3.63E-10,  avg # of iterations =  3.5

     negative rho (up, down):  1.175E+01 0.000E+00

     total cpu time spent up to now is     3725.8 secs

     total energy              =  -44078.14018860 Ry
     estimated scf accuracy    <       0.00002837 Ry

     iteration # 26     ecut=    40.00 Ry     beta= 0.70
     Davidson diagonalization with overlap
     ethr =  3.63E-10,  avg # of iterations =  2.8

     negative rho (up, down):  1.175E+01 0.000E+00

     total cpu time spent up to now is     3845.0 secs

     total energy              =  -44078.14019164 Ry
     estimated scf accuracy    <       0.00004671 Ry

     iteration # 27     ecut=    40.00 Ry     beta= 0.70
     Davidson diagonalization with overlap
     ethr =  3.63E-10,  avg # of iterations =  2.8

     negative rho (up, down):  1.175E+01 0.000E+00

     total cpu time spent up to now is     3958.0 secs

     End of self-consistent calculation

          k = 0.1250 0.1083 0.0000 (330335 PWs)   bands (ev):

    -0.8184  -0.4825  -0.4766  -0.3731  -0.2665  -0.1471  -0.0894  -0.0570
    -0.0399   0.0202   0.0630   0.1475   0.2078   0.2354   0.2659   0.3414
     0.4005   0.4463   0.4619   0.5185   0.5431   0.5963   0.6023   0.7005
     0.7097   0.7367   0.8850   0.9109   0.9155   0.9201   0.9699   0.9867
     1.0154   1.0412   1.1039   1.1200   1.1347   1.1665   1.1718   1.1994
     1.2427   1.2498   1.2682   1.2863   1.2896   1.2928   1.3021   1.4027
     1.4299   1.4320   1.4385   1.4418   1.4559   1.4564   1.4593   1.4812
     1.4991   1.5084   1.5208   1.5211   1.5245   1.5365   1.5604   1.5639
     1.5781   1.6023   1.6085   1.6099   1.6127   1.6141   1.6142   1.6231
     1.6426   1.6519   1.6542   1.6657   1.6873   1.6955   1.7079   1.7240
     1.7356   1.7511   1.7586   1.7598   1.7603   1.7656   1.7718   1.7842
     1.7974   1.8130   1.8268   1.8322   1.8399   1.8429   1.8453   1.8488
     1.8500   1.8504   1.8513   1.8632   1.8642   1.8666   1.8681   1.8887
     1.9053   1.9054   1.9092   1.9124   1.9260   1.9277   1.9318   1.9411
     1.9476   1.9558   1.9560   1.9571   1.9676   1.9681   1.9804   1.9823
     1.9853   1.9918   1.9989   2.0116   2.0132   2.0161   2.0175   2.0213
     2.0267   2.0280   2.0324   2.0359   2.0414   2.0444   2.0453   2.0456
     2.0516   2.0616   2.0655   2.0682   2.0762   2.0817   2.0937   2.0978
     2.1008   2.1024   2.1189   2.1195   2.1200   2.1233   2.1233   2.1238
     2.1249   2.1254   2.1278   2.1293   2.1378   2.1410   2.1443   2.1504
     2.1510   2.1522   2.1556   2.1572   2.1587   2.1606   2.1643   2.1655
     2.1663   2.1765   2.1788   2.1824   2.1829   2.1958   2.2033   2.2044
     2.2103   2.2121   2.2131   2.2159   2.2189   2.2193   2.2193   2.2198
     2.2233   2.2267   2.2277   2.2327   2.2379   2.2413   2.2436   2.2450
     2.2480   2.2509   2.2580   2.2601   2.2614   2.2636   2.2686   2.2764
     2.2906   2.2921   2.2985   2.2992   2.2999   2.3024   2.3073   2.3081
     2.3087   2.3098   2.3108   2.3115   2.3125   2.3157   2.3202   2.3210
     2.3250   2.3256   2.3263   2.3283   2.3285   2.3335   2.3345   2.3437
     2.3467   2.3515   2.3534   2.3555   2.3599   2.3634   2.3671   2.3723
     2.3729   2.3757   2.3860   2.3866   2.3883   2.3898   2.3906   2.3925
     2.3942   2.3992   2.4024   2.4125   2.4128   2.4131   2.4159   2.4162
     2.4259   2.4266   2.4310   2.4341   2.4420   2.4435   2.4444   2.4464
     2.4470   2.4484   2.4498   2.4501   2.4522   2.4523   2.4560   2.4606
     2.4653   2.4730   2.4741   2.4752   2.4767   2.4824   2.4851   2.4853
     2.4857   2.4891   2.4913   2.4954   2.4984   2.5039   2.5101   2.5117
     2.5120   2.5125   2.5185   2.5194   2.5201   2.5233   2.5234   2.5249
     2.5343   2.5370   2.5381   2.5416   2.5442   2.5459   2.5473   2.5515
     2.5542   2.5571   2.5723   2.5760   2.5781   2.5782   2.5785   2.5815
     2.5820   2.5824   2.5848   2.5852   2.5874   2.5937   2.5948   2.5952
     2.5963   2.5969   2.6019   2.6045   2.6059   2.6117   2.6177   2.6264
     2.6266   2.6285   2.6328   2.6331   2.6357   2.6362   2.6379   2.6393
     2.6446   2.6524   2.6613   2.6643   2.6654   2.6670   2.6742   2.6754
     2.6760   2.6803   2.6818   2.6827   2.6894   2.6905   2.6917   2.6959
     2.6971   2.7013   2.7025   2.7073   2.7140   2.7152   2.7153   2.7208
     2.7230   2.7255   2.7259   2.7268   2.7273   2.7299   2.7348   2.7369
     2.7400   2.7412   2.7412   2.7442   2.7445   2.7526   2.7544   2.7588
     2.7647   2.7674   2.7695   2.7700   2.7801   2.7803   2.7821   2.7830
     2.7830   2.7834   2.7868   2.7885   2.7889   2.7892   2.7953   2.7991
     2.8000   2.8038   2.8114   2.8138   2.8150   2.8170   2.8176   2.8187
     2.8214   2.8273   2.8288   2.8377   2.8402   2.8473   2.8482   2.8508
     2.8520   2.8536   2.8539   2.8599   2.8610   2.8611   2.8612   2.8628
     2.8700   2.8754   2.8829   2.8941   2.8960   2.8971   2.8990   2.9020
     2.9024   2.9041   2.9044   2.9057   2.9091   2.9143   2.9146   2.9154
     2.9251   2.9272   2.9307   2.9314   2.9333   2.9341   2.9357   2.9361
     2.9447   2.9503   2.9633   2.9648   2.9659   2.9662   2.9686   2.9723
     2.9728   2.9767   2.9777   2.9985   3.0082   3.0100   3.0125   3.0132
     3.0164   3.0280   3.0282   3.0361   3.0378   3.0380   3.0393   3.0408
     3.0424   3.0545   3.0548   3.0622   3.0645   3.0685   3.0722   3.0799
     3.0808   3.0824   3.0852   3.0853   3.0921   3.0974   3.0978   3.0979
     3.0988   3.0993   3.1052   3.1093   3.1141   3.1180   3.1238   3.1262
     3.1269   3.1289   3.1323   3.1338   3.1410   3.1452   3.1536   3.1571
     3.1600   3.1622   3.1633   3.1736   3.1737   3.1758   3.1759   3.1759
     3.1794   3.1795   3.1830   3.1834   3.1854   3.1872   3.1896   3.1909
     3.1911   3.1937   3.1954   3.1979   3.2001   3.2005   3.2092   3.2212
     3.2237   3.2269   3.2306   3.2329   3.2359   3.2399   3.2404   3.2405
     3.2412   3.2418   3.2437   3.2523   3.2530   3.2594   3.2594   3.2599
     3.2611   3.2683   3.2688   3.2790   3.2807   3.2857   3.2886   3.2901
     3.2902   3.2902   3.2930   3.2962   3.2980   3.3006   3.3037   3.3054
     3.3079   3.3112   3.3135   3.3197   3.3201   3.3218   3.3254   3.3260
     3.3267   3.3269   3.3284   3.3285   3.3288   3.3305   3.3381   3.3389
     3.3413   3.3426   3.3441   3.3467   3.3509   3.3518   3.3528   3.3548
     3.3554   3.3556   3.3566   3.3587   3.3593   3.3637   3.3737   3.3751
     3.3782   3.3789   3.3819   3.3823   3.3859   3.3915   3.3922   3.3974
     3.3975   3.3986   3.3990   3.4035   3.4041   3.4159   3.4196   3.4215
     3.4253   3.4271   3.4284   3.4288   3.4361   3.4415   3.4420   3.4430
     3.4501   3.4501   3.4572   3.4573   3.4596   3.4598   3.4614   3.4658
     3.4668   3.4671   3.4681   3.4714   3.4732   3.4756   3.4757   3.4769
     3.4823   3.4852   3.4865   3.4866   3.4881   3.4915   3.4991   3.5000
     3.5007   3.5031   3.5046   3.5065   3.5087   3.5095   3.5116   3.5118
     3.5149   3.5161   3.5165   3.5170   3.5186   3.5208   3.5280   3.5295
     3.5317   3.5327   3.5357   3.5366   3.5463   3.5479   3.5480   3.5535
     3.5608   3.5627   3.5634   3.5687   3.5722   3.5722   3.5749   3.5769
     3.5787   3.5825   3.5879   3.5882   3.5889   3.5923   3.5933   3.5956
     3.5963   3.5983   3.5993   3.6015   3.6039   3.6054   3.6076   3.6080
     3.6084   3.6105   3.6177   3.6177   3.6218   3.6219   3.6233   3.6252
     3.6273   3.6331   3.6350   3.6360   3.6361   3.6425   3.6447   3.6485
     3.6503   3.6507   3.6510   3.6595   3.6601   3.6643   3.6668   3.6684
     3.6689   3.6730   3.6768   3.6768   3.6771   3.6813   3.6831   3.6889
     3.6898   3.6899   3.6904   3.6922   3.6959   3.6968   3.7019   3.7066
     3.7091   3.7095   3.7130   3.7171   3.7178   3.7195   3.7203   3.7243
     3.7255   3.7298   3.7311   3.7372   3.7383   3.7462   3.7532   3.7541
     3.7546   3.7567   3.7595   3.7606   3.7664   3.7695   3.7703   3.7736
     3.7781   3.7787   3.7793   3.7800   3.7812   3.7835   3.7838   3.7844
     3.7849   3.7917   3.7921   3.7953   3.8075   3.8174   3.8190   3.8201
     3.8215   3.8236   3.8252   3.8267   3.8282   3.8293   3.8337   3.8343
     3.8362   3.8408   3.8449   3.8452   3.8465   3.8468   3.8529   3.8529
     3.8533   3.8540   3.8556   3.8566   3.8573   3.8596   3.8605   3.8635
     3.8635   3.8662   3.8663   3.8668   3.8670   3.8673   3.8689   3.8695
     3.8733   3.8760   3.8790   3.8805   3.8861   3.8874   3.8875   3.8897
     3.8926   3.8940   3.8959   3.8964   3.8979   3.9025   3.9064   3.9068
     3.9082   3.9092   3.9118   3.9148   3.9150   3.9161   3.9164   3.9234
     3.9241   3.9274   3.9291   3.9292   3.9309   3.9312   3.9335   3.9336
     3.9339   3.9346   3.9372   3.9402   3.9462   3.9478   3.9478   3.9497
     3.9498   3.9545   3.9545   3.9547   3.9570   3.9618   3.9653   3.9674
     3.9696   3.9697   3.9706   3.9714   3.9726   3.9727   3.9761   3.9764
     3.9768   3.9811   3.9824   3.9831   3.9842   3.9883   3.9904   3.9910
     3.9922   3.9963   4.0018   4.0022   4.0034   4.0034   4.0063   4.0081
     4.0086   4.0086   4.0093   4.0117   4.0178   4.0193   4.0258   4.0266
     4.0278   4.0339   4.0361   4.0379   4.0379   4.0382   4.0442   4.0447
     4.0456   4.0474   4.0479   4.0492   4.0511   4.0515   4.0525   4.0527
     4.0528   4.0561   4.0593   4.0604   4.0616   4.0652   4.0668   4.0700
     4.0701   4.0715   4.0716   4.0763   4.0775   4.0785   4.0789   4.0790
     4.0792   4.0803   4.0812   4.0837   4.0850   4.0854   4.0860   4.0865
     4.0876   4.0892   4.0917   4.0931   4.0962   4.0991   4.1001   4.1017
     4.1023   4.1051   4.1073   4.1095   4.1097   4.1102   4.1110   4.1123
     4.1128   4.1129   4.1147   4.1149   4.1213   4.1251   4.1263   4.1270
     4.1276   4.1278   4.1283   4.1301   4.1323   4.1337   4.1346   4.1347
     4.1405   4.1423   4.1433   4.1445   4.1457   4.1473   4.1481   4.1487
     4.1494   4.1530   4.1533   4.1537   4.1558   4.1614   4.1628   4.1633
     4.1643   4.1649   4.1652   4.1680   4.1682   4.1688   4.1744   4.1751
     4.1756   4.1767   4.1805   4.1810   4.1816   4.1821   4.1823   4.1839
     4.1842   4.1857   4.1875   4.1902   4.1903   4.1913   4.1914   4.1929
     4.1934   4.1951   4.1970   4.1977   4.1979   4.2015   4.2024   4.2044
     4.2063   4.2074   4.2086   4.2093   4.2103   4.2106   4.2120   4.2141
     4.2157   4.2178   4.2197   4.2201   4.2217   4.2222   4.2231   4.2235
     4.2258   4.2273   4.2325   4.2338   4.2349   4.2362   4.2385   4.2437
     4.2439   4.2482   4.2513   4.2515   4.2521   4.2558   4.2570   4.2581
     4.2585   4.2586   4.2586   4.2616   4.2630   4.2641   4.2659   4.2668
     4.2676   4.2760   4.2765   4.2772   4.2779   4.2800   4.2811   4.2816
     4.2820   4.2850   4.2901   4.2911   4.2945   4.2953   4.2960   4.2966
     4.3004   4.3010   4.3018   4.3028   4.3039   4.3093   4.3102   4.3112
     4.3134   4.3144   4.3144   4.3177   4.3219   4.3246   4.3248   4.3276
     4.3278   4.3281   4.3317   4.3338   4.3417   4.3425   4.3429   4.3466
     4.3472   4.3477   4.3478   4.3502   4.3548   4.3558   4.3577   4.3579
     4.3610   4.3641   4.3652   4.3658   4.3665   4.3678   4.3689   4.3691
     4.3696   4.3707   4.3712   4.3740   4.3750   4.3752   4.3761   4.3791
     4.3797   4.3805   4.3825   4.3832   4.3841   4.3844   4.3848   4.3904
     4.3927   4.3929   4.3991   4.4036   4.4057   4.4067   4.4072   4.4088
     4.4105   4.4113   4.4145   4.4168   4.4280   4.4299   4.4322   4.4341
     4.4381   4.4400   4.4426   4.4433   4.4445   4.4494   4.4517   4.4520
     4.4529   4.4539   4.4553   4.4563   4.4567   4.4573   4.4573   4.4610
     4.4633   4.4639   4.4688   4.4700   4.4758   4.4776   4.4783   4.4793
     4.4801   4.4852   4.4892   4.4904   4.4911   4.4914   4.4930   4.4940
     4.4944   4.4984   4.4992   4.4999   4.5005   4.5018   4.5090   4.5121
     4.5131   4.5144   4.5146   4.5173   4.5182   4.5187   4.5267   4.5276
     4.5286   4.5287   4.5312   4.5318   4.5373   4.5403   4.5426   4.5456
     4.5458   4.5472   4.5508   4.5516   4.5602   4.5610   4.5618   4.5627
     4.5637   4.5655   4.5667   4.5699   4.5728   4.5732   4.5740   4.5871
     4.5882   4.5889   4.5897   4.5952   4.5995   4.5999   4.6011   4.6026
     4.6029   4.6055   4.6060   4.6073   4.6081   4.6100   4.6147   4.6163
     4.6203   4.6206   4.6220   4.6226   4.6269   4.6292   4.6351   4.6356
     4.6367   4.6367   4.6394   4.6434   4.6440   4.6445   4.6540   4.6558
     4.6569   4.6596   4.6600   4.6606   4.6610   4.6634   4.6640   4.6673
     4.6675   4.6719   4.6732   4.6734   4.6741   4.6743   4.6779   4.6804
     4.6809   4.6834   4.6839   4.6907   4.6909   4.6910   4.6925   4.6940
     4.6942   4.6992   4.7001   4.7038   4.7043   4.7073   4.7103   4.7129
     4.7129   4.7169   4.7177   4.7186   4.7200   4.7246   4.7275   4.7285
     4.7300   4.7320   4.7366   4.7378   4.7413   4.7437   4.7445   4.7514
     4.7519   4.7566   4.7579   4.7581   4.7594   4.7597   4.7597   4.7640
     4.7645   4.7656   4.7666   4.7732   4.7765   4.7794   4.7869   4.7875
     4.7921   4.7931   4.7944   4.7977   4.7989   4.8021   4.8028   4.8166
     4.8196   4.8221   4.8237   4.8244   4.8316   4.8342   4.8363   4.8364
     4.8367   4.8391   4.8458   4.8463   4.8539   4.8562   4.8577   4.8593
     4.8609   4.8609   4.8628   4.8635   4.8652   4.8659   4.8689   4.8794
     4.8797   4.8804   4.8874   4.8902   4.8918   4.8972   4.8977   4.9027
     4.9055   4.9062   4.9065   4.9071   4.9079   4.9114   4.9119   4.9122
     4.9132   4.9156   4.9163   4.9198   4.9275   4.9280   4.9291   4.9325
     4.9325   4.9366   4.9381   4.9393   4.9430   4.9438   4.9450   4.9455
     4.9470   4.9488   4.9516   4.9519   4.9521   4.9535   4.9590   4.9596
     4.9642   4.9649   4.9652   4.9669   4.9691   4.9703   4.9750   4.9800
     4.9810   4.9818   4.9879   4.9906   4.9920   5.0033   5.0047   5.0048
     5.0052   5.0055   5.0059   5.0071   5.0106   5.0107   5.0110   5.0121
     5.0123   5.0141   5.0196   5.0225   5.0247   5.0249   5.0258   5.0289
     5.0322   5.0323   5.0326   5.0329   5.0357   5.0362   5.0381   5.0458
     5.0498   5.0500   5.0501   5.0513   5.0560   5.0572   5.0576   5.0582
     5.0601   5.0605   5.0632   5.0633   5.0653   5.0667   5.0673   5.0714
     5.0720   5.0790   5.0804   5.0840   5.0869   5.0897   5.0932   5.0959
     5.1024   5.1038   5.1057   5.1064   5.1092   5.1114   5.1122   5.1122
     5.1199   5.1199   5.1237   5.1257   5.1332   5.1359   5.1373   5.1396
     5.1397   5.1400   5.1420   5.1424   5.1446   5.1508   5.1514   5.1535
     5.1572   5.1602   5.1620   5.1627   5.1652   5.1696   5.1705   5.1718
     5.1732   5.1737   5.1763   5.1773   5.1811   5.1818   5.1818   5.1823
     5.1825   5.1837   5.1870   5.1897   5.1916   5.1926   5.1985   5.1995
     5.2023   5.2026   5.2065   5.2075   5.2084   5.2109   5.2113   5.2144
     5.2152   5.2176   5.2207   5.2208   5.2249   5.2259   5.2260   5.2269
     5.2284   5.2295   5.2358   5.2376   5.2405   5.2429   5.2441   5.2461
     5.2478   5.2517   5.2527   5.2551   5.2570   5.2579   5.2618   5.2622
     5.2657   5.2663   5.2685   5.2694   5.2700   5.2714   5.2717   5.2719
     5.2727   5.2730   5.2750   5.2788   5.2824   5.2828   5.2836   5.2887
     5.2894   5.2941   5.2995   5.2999   5.3013   5.3047   5.3092   5.3093
     5.3120   5.3139   5.3146   5.3155   5.3186   5.3214   5.3216   5.3279
     5.3281   5.3285   5.3289   5.3347   5.3347   5.3352   5.3357   5.3388
     5.3394   5.3408   5.3412   5.3433   5.3434   5.3436   5.3468   5.3482
     5.3510   5.3531   5.3549   5.3576   5.3595   5.3620   5.3643   5.3662
     5.3692   5.3692   5.3695   5.3707   5.3720   5.3725   5.3739   5.3741
     5.3783   5.3790   5.3819   5.3851   5.3862   5.3865   5.3897   5.3913
     5.3931   5.3950   5.3960   5.3984   5.3991   5.3995   5.4031   5.4048
     5.4069   5.4161   5.4175   5.4236   5.4255   5.4269   5.4284   5.4294
     5.4378   5.4382   5.4385   5.4403   5.4407   5.4410   5.4416   5.4446
     5.4531   5.4554   5.4572   5.4575   5.4600   5.4628   5.4662   5.4694
     5.4695   5.4755   5.4759   5.4768   5.4791   5.4796   5.4798   5.4877
     5.4882   5.4970   5.5016   5.5025   5.5051   5.5070   5.5074   5.5077
     5.5084   5.5103   5.5126   5.5127   5.5160   5.5183   5.5186   5.5187
     5.5192   5.5200   5.5220   5.5223   5.5261   5.5269   5.5335   5.5366
     5.5372   5.5382   5.5396   5.5401   5.5402   5.5465   5.5469   5.5471
     5.5471   5.5490   5.5496   5.5499   5.5537   5.5539   5.5553   5.5553
     5.5559   5.5597   5.5600   5.5607   5.5686   5.5701   5.5710   5.5758
     5.5773   5.5806   5.5821   5.5846   5.5886   5.5913   5.5930   5.5940
     5.5948   5.5949   5.5954   5.5982   5.5986   5.5997   5.6005   5.6024
     5.6036   5.6057   5.6115   5.6144   5.6210   5.6234   5.6241   5.6290
     5.6303   5.6354   5.6406   5.6427   5.6435   5.6453   5.6454   5.6457
     5.6462   5.6510   5.6522   5.6551   5.6586   5.6601   5.6602   5.6669
     5.6719   5.6728   5.6749   5.6757   5.6767   5.6777   5.6805   5.6805
     5.6821   5.6835   5.6838   5.6853   5.6868   5.6949   5.6951   5.6980
     5.6988   5.7037   5.7071   5.7074   5.7112   5.7120   5.7142   5.7160
     5.7188   5.7227   5.7239   5.7252   5.7253   5.7260   5.7265   5.7282
     5.7284   5.7301   5.7372   5.7381   5.7381   5.7424   5.7429   5.7432
     5.7483   5.7568   5.7601   5.7620   5.7643   5.7683   5.7707   5.7712
     5.7716   5.7754   5.7776   5.7783   5.7812   5.7832   5.7888   5.7905
     5.7912   5.7925   5.7928   5.7947   5.7993   5.7993   5.7995   5.8002
     5.8068   5.8081   5.8083   5.8083   5.8165   5.8175   5.8215   5.8221
     5.8225   5.8271   5.8306   5.8345   5.8350   5.8373   5.8375   5.8388
     5.8398   5.8419   5.8426   5.8441   5.8447   5.8543   5.8573   5.8584
     5.8598   5.8598   5.8598   5.8598   5.8610   5.8626   5.8647   5.8673
     5.8689   5.8701   5.8764   5.8800   5.8858   5.8860   5.8916   5.8937
     5.8945   5.8947   5.8963   5.8995   5.9039   5.9041   5.9077   5.9116
     5.9137   5.9166   5.9166   5.9180   5.9185   5.9205   5.9206   5.9224
     5.9250   5.9253   5.9258   5.9276   5.9292   5.9296   5.9308   5.9310
     5.9318   5.9357   5.9361   5.9369   5.9425   5.9468   5.9471   5.9512
     5.9538   5.9538   5.9549   5.9554   5.9564   5.9593   5.9611   5.9667
     5.9707   5.9722   5.9743   5.9749   5.9773   5.9776   5.9792   5.9799
     5.9803   5.9803   5.9832   5.9883   5.9899   5.9902   5.9908   5.9921
     5.9985   5.9997   6.0009   6.0049   6.0093   6.0115   6.0168   6.0172
     6.0241   6.0247   6.0279   6.0296   6.0311   6.0343   6.0353   6.0368
     6.0372   6.0397   6.0399   6.0446   6.0450   6.0473   6.0495   6.0498
     6.0503   6.0507   6.0517   6.0562   6.0571   6.0572   6.0580   6.0580
     6.0591   6.0591   6.0606   6.0680   6.0693   6.0726   6.0741   6.0743
     6.0748   6.0751   6.0782   6.0783   6.0793   6.0873   6.0876   6.0883
     6.0899   6.0900   6.0904   6.0933   6.0948   6.0970   6.0977   6.0977
     6.1007   6.1012   6.1043   6.1056   6.1064   6.1072   6.1074   6.1092
     6.1103   6.1125   6.1126   6.1147   6.1169   6.1175   6.1178   6.1200
     6.1212   6.1218   6.1228   6.1330   6.1370   6.1385   6.1403   6.1413
     6.1429   6.1461   6.1463   6.1464   6.1478   6.1481   6.1482   6.1501
     6.1502   6.1523   6.1543   6.1543   6.1553   6.1575   6.1615   6.1620
     6.1621   6.1629   6.1651   6.1656   6.1674   6.1681   6.1689   6.1697
     6.1703   6.1707   6.1726   6.1728   6.1744   6.1791   6.1811   6.1815
     6.1835   6.1837   6.1851   6.1854   6.1863   6.1865   6.1881   6.1887
     6.1887   6.1897   6.1899   6.1923   6.1979   6.1991   6.1992   6.2021
     6.2026   6.2034   6.2057   6.2058   6.2066   6.2088   6.2090   6.2098
     6.2132   6.2132   6.2157   6.2172   6.2173   6.2182   6.2197   6.2205
     6.2229   6.2234   6.2236   6.2236   6.2275   6.2289   6.2296   6.2318
     6.2330   6.2331   6.2336   6.2342   6.2343   6.2352   6.2357   6.2363
     6.2379   6.2380   6.2382   6.2398   6.2403   6.2404   6.2425   6.2431
     6.2456   6.2478   6.2506   6.2511   6.2513   6.2525   6.2538   6.2546
     6.2561   6.2568   6.2603   6.2605   6.2612   6.2617   6.2632   6.2649
     6.2669   6.2676   6.2684   6.2685   6.2698   6.2720   6.2731   6.2733
     6.2742   6.2756   6.2759   6.2772   6.2797   6.2814   6.2838   6.2842
     6.2844   6.2848   6.2913   6.2924   6.2945   6.2982   6.2993   6.3034
     6.3073   6.3081   6.3109   6.3152   6.3171   6.3186   6.3195   6.3199
     6.3204   6.3217   6.3267   6.3267   6.3299   6.3305   6.3306   6.3307
     6.3312   6.3317   6.3328   6.3328   6.3362   6.3367   6.3371   6.3386
     6.3422   6.3435   6.3471   6.3474   6.3484   6.3495   6.3513   6.3513
     6.3529   6.3538   6.3567   6.3606   6.3637   6.3649   6.3651   6.3684
     6.3685   6.3713   6.3727   6.3744   6.3749   6.3754   6.3760   6.3760
     6.3780   6.3808   6.3808   6.3814   6.3848   6.3874   6.3930   6.3947
     6.3980   6.3994   6.4001   6.4004   6.4006   6.4009   6.4062   6.4066
     6.4086   6.4097   6.4103   6.4126   6.4134   6.4145   6.4258   6.4271
     6.4299   6.4319   6.4330   6.4339   6.4350   6.4359   6.4365   6.4390
     6.4423   6.4427   6.4428   6.4439   6.4483   6.4514   6.4524   6.4540
     6.4559   6.4574   6.4606   6.4609   6.4629   6.4640   6.4649   6.4649
     6.4685   6.4700   6.4707   6.4710   6.4746   6.4753   6.4791   6.4812
     6.4852   6.4865   6.4909   6.4925   6.4936   6.4965   6.5008   6.5087
     6.5112   6.5136   6.5150   6.5151   6.5158   6.5185   6.5287   6.5318
     6.5348   6.5364   6.5367   6.5373   6.5381   6.5404   6.5463   6.5465
     6.5476   6.5479   6.5490   6.5491   6.5495   6.5500   6.5507   6.5537
     6.5545   6.5597   6.5684   6.5697   6.5707   6.5739   6.5746   6.5758
     6.5768   6.5847   6.5851   6.5865   6.5874   6.5879   6.5897   6.5902
     6.5962   6.5981   6.5985   6.5991   6.5993   6.5994   6.5996   6.5998
     6.6008   6.6010   6.6032   6.6035   6.6064   6.6071   6.6088   6.6160
     6.6178   6.6208   6.6323   6.6357   6.6391   6.6400   6.6402   6.6407
     6.6449   6.6461   6.6478   6.6487   6.6555   6.6584   6.6607   6.6617
     6.6622   6.6652   6.6781   6.6857   6.7041   6.7063   6.7128   6.7168
     6.7193   6.7222   6.7250   6.7287   6.7375   6.7405   6.7578   6.7613
     6.7618   6.7748   6.7777   6.7931   6.7994   6.8163   6.8287   6.8329
     6.8337   6.8366   6.8393   6.8444   6.8505   6.8536   6.8711   6.8770
     6.8952   6.8970   6.8982   6.9047   6.9055   6.9127   6.9131   6.9183
     6.9635   6.9707   7.0213   7.0219   7.0305   7.0401   7.0409   7.0484
     7.0588   7.0699   7.0750   7.0923   7.0947   7.0965   7.1137   7.1159
     7.1172   7.1977   7.2298   7.2550   7.2804   7.2993   7.3128   7.3590
     7.3676   7.3841   7.3859   7.3889   7.4228   7.4354   7.4375   7.4392
     7.4819   7.5042   7.5071   7.5283   7.5491   7.5496   7.6080   7.6172
     7.6233   7.6363   7.6705   7.6729   7.7188   7.7262   7.7325   7.7371
     7.7388   7.7535   7.7613   7.7687   7.7886   7.7974   7.7981   7.8035
     7.8229   7.8410   7.8555   7.8677   7.8708   7.8795   7.8852   7.9040
     7.9138   7.9327   7.9967   8.0299   8.0484   8.0534   8.0566   8.0734
     8.1183   8.1462   8.1530   8.1582   8.1773   8.1806   8.1858   8.2083
     8.2134   8.2418   8.2499   8.2762   8.2801   8.3023   8.3285   8.3347
     8.3599   8.3992   8.4183   8.4185   8.4222   8.4369   8.4544   8.4647
     8.4783   8.5045   8.5194   8.5238   8.5314   8.5451   8.5568   8.5614
     8.5707   8.5802   8.5837   8.5842   8.5933   8.6106   8.6331   8.6538
     8.6926   8.7025   8.7267   8.7681   8.7843   8.7921   8.8082   8.8094
     8.8124   8.8254   8.8310   8.8403   8.8445   8.8710   8.9077   8.9175
     8.9318   8.9367   8.9372   8.9502   9.0105   9.0130   9.0204   9.0247
     9.0408   9.0542   9.0632   9.0688   9.0698   9.0957   9.1186   9.1577
     9.1893   9.2179   9.2294   9.2396   9.2479   9.2511   9.2622   9.2732
     9.2736   9.2870   9.3070   9.3076   9.3201   9.3260   9.3274   9.3285
     9.3582   9.3634   9.3842   9.3854   9.3882   9.4403   9.4418   9.4568
     9.5045   9.5472   9.5699   9.5923   9.5950   9.6044   9.6164   9.6326
     9.6421   9.6593   9.6718   9.6843   9.7048   9.7274   9.7414   9.7545
     9.7555   9.7595   9.7819   9.7891   9.7978   9.8052   9.8121   9.8213
     9.8227   9.8251   9.8286   9.8483   9.8594   9.8652   9.8795   9.8890
     9.9111   9.9639   9.9729  10.0098  10.0106  10.0143  10.0296  10.0460
    10.0518  10.0530  10.0801  10.0803  10.1040  10.1079  10.1091  10.1812
    10.1898  10.2546  10.2547  10.2717  10.3023  10.3127  10.3174  10.3541
    10.3544  10.3982  10.3992  10.4774  10.4777  10.4837  10.5077  10.5287
    10.5301  10.5332  10.5380  10.5386  10.5502  10.5694  10.6027  10.6308
    10.6321  10.6346  10.6503  10.6534  10.6535  10.6624  10.6689  10.6915
    10.7484  10.7719  10.7926  10.7977  10.8101  10.8236  10.8264  10.8423
    10.8479  10.8531  10.8572  10.8630  10.8762  10.9215  10.9564  10.9585
    10.9789  10.9801  10.9903  11.0174  11.0512  11.0571  11.0594  11.0716
    11.1167  11.1225  11.1250  11.1359  11.1411  11.1611  11.1750  11.1857
    11.1949  11.2108  11.2119  11.2172  11.2177  11.2256  11.2283  11.2309
    11.2413  11.2473  11.2645  11.2919  11.2986  11.3023  11.3054  11.3226
    11.3280  11.3313  11.3505  11.3549  11.3822  11.4055  11.4178  11.4225
    11.4240  11.4458  11.4700  11.4808  11.5090  11.5334  11.5361  11.5545
    11.5686  11.5896  11.6098  11.6426  11.6470  11.6816  11.6820  11.7129
    11.7204  11.7211  11.7227  11.7293  11.7358  11.8235  11.8270  11.8471
    11.8481  11.8549  11.8686  11.8963  11.8984  11.9140  11.9434  11.9450
    11.9766  12.0001  12.0129  12.0306  12.0433  12.0686  12.0688  12.0807
    12.1003  12.1113  12.1256  12.1397  12.1522  12.1562  12.2039  12.2342
    12.2488  12.2584  12.2617  12.2719  12.2776  12.2905  12.2929  12.3266
    12.3359  12.3383  12.3579  12.3623  12.3686  12.3706  12.3759  12.4177
    12.4437  12.4456  12.4460  12.4621  12.4626  12.5459  12.5528  12.5576
    12.5602  12.5762  12.5792  12.5905  12.5921  12.5929  12.6015  12.6129
    12.6184  12.6359  12.6360  12.6365  12.6445  12.6515  12.6556  12.6764
    12.6916  12.6940  12.7116  12.7142  12.7309  12.7321  12.7417  12.7425
    12.7592  12.7602  12.7766  12.7966  12.8180  12.8188  12.8255  12.8349
    12.8524  12.8847  12.8859  12.9019  12.9056  12.9209  12.9285  12.9672
    12.9950  13.0007  13.0089  13.0167  13.0214  13.0275  13.0300  13.0360
    13.0393  13.0455  13.0676  13.0789  13.0957  13.1178  13.1234  13.1311
    13.1436  13.1523  13.1775  13.1806  13.1809  13.2036  13.2313  13.2332
    13.2470  13.2710  13.2832  13.2856  13.2914  13.3093  13.3142  13.3308
    13.3825  13.3861  13.3906  13.4017  13.4137  13.4186  13.4280  13.4304
    13.4327  13.4658  13.4717  13.4739  13.5036  13.5065  13.5114  13.5342
    13.5500  13.5700  13.5753  13.5875  13.5921  13.6079  13.6098  13.6201
    13.6205  13.6516  13.6603  13.6740  13.6855  13.6858  13.6957  13.7062
    13.7164  13.7211  13.7296  13.7549  13.7641  13.7696  13.7714  13.7716
    13.7758  13.8007  13.8184  13.8185  13.8195  13.8247  13.8291  13.8303
    13.8327  13.8370  13.8622  13.8961  13.9033  13.9040  13.9134  13.9154
    13.9265  13.9380  13.9581  13.9732  13.9908  13.9954  13.9967  14.0052
    14.0244  14.0306  14.0311  14.0544  14.0577  14.0735  14.0856  14.1161
    14.1181  14.1198  14.1506  14.1517  14.1523  14.1569  14.1589  14.1630
    14.1635  14.1651  14.1876  14.1922  14.2051  14.2512  14.2534  14.2829
    14.2912  14.2962  14.3037  14.3122  14.3289  14.3300  14.3469  14.3720
    14.3825  14.3840  14.4029  14.4036  14.4066  14.4104  14.4234  14.4263
    14.4580  14.4596  14.4623  14.5045  14.5125  14.5457  14.5786  14.6063
    14.6328  14.6486  14.6611

          k = 0.1250 0.3248 0.0000 (330368 PWs)   bands (ev):

    -0.7615  -0.6487  -0.4206  -0.3197  -0.3099  -0.2137  -0.0392  -0.0068
     0.0120   0.0604   0.0752   0.1147   0.1834   0.2833   0.2875   0.3132
     0.3783   0.3949   0.4959   0.5926   0.5937   0.6343   0.6506   0.6783
     0.6969   0.7541   0.7570   0.7786   0.8416   0.9035   0.9193   0.9617
     1.0327   1.0620   1.0625   1.1037   1.1357   1.1552   1.1671   1.1738
     1.1949   1.2791   1.3079   1.3102   1.3202   1.3292   1.3462   1.3528
     1.3709   1.3858   1.4013   1.4200   1.4420   1.4496   1.4736   1.4893
     1.4900   1.5425   1.5447   1.5543   1.5815   1.5823   1.5855   1.5921
     1.6000   1.6069   1.6095   1.6254   1.6254   1.6299   1.6528   1.6543
     1.6566   1.6589   1.6608   1.6697   1.6759   1.6827   1.7028   1.7042
     1.7128   1.7183   1.7264   1.7406   1.7707   1.7859   1.8007   1.8063
     1.8073   1.8074   1.8182   1.8375   1.8456   1.8577   1.8604   1.8626
     1.8701   1.8727   1.8728   1.8766   1.8851   1.8889   1.8932   1.9074
     1.9091   1.9138   1.9161   1.9215   1.9297   1.9333   1.9384   1.9416
     1.9521   1.9562   1.9579   1.9595   1.9601   1.9665   1.9728   1.9824
     1.9848   1.9863   1.9875   1.9908   1.9930   2.0093   2.0160   2.0252
     2.0263   2.0267   2.0332   2.0371   2.0404   2.0462   2.0514   2.0574
     2.0601   2.0603   2.0605   2.0705   2.0727   2.0778   2.0798   2.0871
     2.0875   2.0923   2.1024   2.1175   2.1212   2.1214   2.1308   2.1365
     2.1391   2.1435   2.1450   2.1462   2.1463   2.1467   2.1468   2.1495
     2.1501   2.1550   2.1588   2.1594   2.1598   2.1626   2.1628   2.1634
     2.1645   2.1721   2.1737   2.1746   2.1864   2.1937   2.1965   2.2023
     2.2025   2.2027   2.2049   2.2103   2.2109   2.2113   2.2137   2.2152
     2.2161   2.2188   2.2232   2.2308   2.2313   2.2335   2.2371   2.2376
     2.2444   2.2449   2.2471   2.2526   2.2530   2.2543   2.2556   2.2566
     2.2585   2.2639   2.2726   2.2836   2.2854   2.2861   2.2887   2.2952
     2.2953   2.3004   2.3117   2.3159   2.3260   2.3275   2.3333   2.3351
     2.3370   2.3375   2.3404   2.3413   2.3423   2.3485   2.3490   2.3522
     2.3556   2.3608   2.3670   2.3671   2.3704   2.3719   2.3749   2.3789
     2.3802   2.3808   2.3841   2.3853   2.3860   2.3867   2.3880   2.3897
     2.3922   2.3929   2.3929   2.3955   2.3956   2.4069   2.4151   2.4247
     2.4328   2.4333   2.4391   2.4504   2.4507   2.4524   2.4530   2.4579
     2.4583   2.4594   2.4602   2.4611   2.4638   2.4656   2.4666   2.4701
     2.4705   2.4760   2.4761   2.4833   2.4896   2.4898   2.4970   2.5006
     2.5021   2.5032   2.5078   2.5084   2.5114   2.5134   2.5147   2.5169
     2.5214   2.5217   2.5227   2.5236   2.5282   2.5283   2.5298   2.5329
     2.5341   2.5415   2.5440   2.5445   2.5466   2.5508   2.5521   2.5575
     2.5605   2.5609   2.5665   2.5699   2.5724   2.5771   2.5775   2.5786
     2.5791   2.5884   2.5898   2.5929   2.5947   2.5958   2.6027   2.6078
     2.6082   2.6085   2.6088   2.6102   2.6111   2.6125   2.6126   2.6133
     2.6144   2.6171   2.6203   2.6229   2.6238   2.6354   2.6363   2.6435
     2.6468   2.6473   2.6475   2.6490   2.6502   2.6518   2.6522   2.6553
     2.6657   2.6685   2.6688   2.6757   2.6764   2.6772   2.6782   2.6796
     2.6802   2.6846   2.6851   2.6871   2.6893   2.6920   2.6930   2.6944
     2.6949   2.6954   2.7022   2.7041   2.7148   2.7159   2.7243   2.7290
     2.7319   2.7323   2.7342   2.7342   2.7347   2.7402   2.7416   2.7432
     2.7446   2.7486   2.7532   2.7586   2.7609   2.7616   2.7665   2.7769
     2.7791   2.7821   2.7893   2.7894   2.7899   2.7906   2.7923   2.7937
     2.7982   2.8036   2.8043   2.8057   2.8059   2.8156   2.8179   2.8239
     2.8276   2.8280   2.8284   2.8330   2.8366   2.8391   2.8416   2.8464
     2.8494   2.8506   2.8517   2.8522   2.8578   2.8604   2.8628   2.8643
     2.8693   2.8762   2.8813   2.8887   2.8934   2.8937   2.8942   2.8976
     2.8996   2.9007   2.9020   2.9053   2.9061   2.9098   2.9152   2.9176
     2.9177   2.9267   2.9334   2.9440   2.9451   2.9463   2.9507   2.9516
     2.9516   2.9538   2.9557   2.9574   2.9621   2.9622   2.9686   2.9706
     2.9713   2.9771   2.9773   2.9806   2.9867   2.9869   2.9922   2.9925
     2.9929   2.9937   3.0105   3.0134   3.0240   3.0297   3.0401   3.0453
[...]
     atom  202 type  1   force =    -0.00000120    0.00019504   -0.00054753
     atom  203 type  1   force =     0.00000000    0.00019488   -0.00054768
     atom  204 type  1   force =     0.00000000    0.00019475   -0.00054767
     atom  205 type  1   force =     0.00000000    0.00019482   -0.00054761
     atom  206 type  1   force =     0.00000120    0.00019511   -0.00054755
     atom  207 type  1   force =     0.00000120    0.00019500   -0.00054758
     atom  208 type  1   force =    -0.00000120    0.00019510   -0.00054757
     atom  209 type  1   force =    -0.00000121    0.00019499   -0.00054756
     atom  210 type  1   force =     0.00000000    0.00019477   -0.00054761
     atom  211 type  1   force =     0.00000000    0.00019491   -0.00054763
     atom  212 type  1   force =     0.00000000    0.00019479   -0.00054766
     atom  213 type  1   force =     0.00000000    0.00019484   -0.00054763
     atom  214 type  1   force =     0.00000069   -0.00018639    0.00042421
     atom  215 type  1   force =     0.00000120    0.00019504   -0.00054753
     atom  216 type  1   force =    -0.00000120    0.00019505   -0.00054754
     atom  217 type  1   force =     0.00000086    0.00018819   -0.00042744
     atom  218 type  1   force =    -0.00000087    0.00018817   -0.00042744
     atom  219 type  1   force =     0.00000000    0.00018752   -0.00042707
     atom  220 type  1   force =    -0.00000121   -0.00019375    0.00054562
     atom  221 type  1   force =     0.00000002   -0.00019479    0.00054451
     atom  222 type  1   force =     0.00000001   -0.00019482    0.00054449
     atom  223 type  1   force =    -0.00000002   -0.00019479    0.00054451
     atom  224 type  1   force =     0.00000087    0.00018810   -0.00042741
     atom  225 type  1   force =     0.00000086    0.00018809   -0.00042747
     atom  226 type  1   force =     0.00000086    0.00018811   -0.00042747
     atom  227 type  1   force =    -0.00000087    0.00018811   -0.00042741
     atom  228 type  1   force =    -0.00000086    0.00018809   -0.00042743
     atom  229 type  1   force =    -0.00000085    0.00018811   -0.00042746
     atom  230 type  1   force =     0.00000000    0.00018743   -0.00042700
     atom  231 type  1   force =     0.00000000    0.00018743   -0.00042706
     atom  232 type  1   force =     0.00000000    0.00018743   -0.00042706
     atom  233 type  1   force =     0.00000087    0.00018817   -0.00042744
     atom  234 type  1   force =     0.00000087    0.00018811   -0.00042741
     atom  235 type  1   force =     0.00000086    0.00018809   -0.00042743
     atom  236 type  1   force =     0.00000085    0.00018811   -0.00042746
     atom  237 type  1   force =    -0.00000086    0.00018819   -0.00042744
     atom  238 type  1   force =    -0.00000087    0.00018810   -0.00042741
     atom  239 type  1   force =    -0.00000086    0.00018809   -0.00042747
     atom  240 type  1   force =     0.00000000    0.00018751   -0.00042706
     atom  241 type  1   force =     0.00000000    0.00018743   -0.00042702
     atom  242 type  1   force =     0.00000000    0.00018742   -0.00042708
     atom  243 type  1   force =    -0.00000121   -0.00019377    0.00054561
     atom  244 type  1   force =    -0.00000121   -0.00019376    0.00054557
     atom  245 type  1   force =    -0.00000120   -0.00019380    0.00054557
     atom  246 type  1   force =    -0.00000000   -0.00019480    0.00054451
     atom  247 type  1   force =    -0.00000001   -0.00019483    0.00054447
     atom  248 type  1   force =     0.00000121   -0.00019375    0.00054563
     atom  249 type  1   force =     0.00000121   -0.00019377    0.00054561
     atom  250 type  1   force =     0.00000121   -0.00019377    0.00054560
     atom  251 type  1   force =     0.00000118   -0.00019379    0.00054557
     atom  252 type  1   force =    -0.00000121   -0.00019375    0.00054563
     atom  253 type  1   force =    -0.00000121   -0.00019377    0.00054561
     atom  254 type  1   force =    -0.00000121   -0.00019377    0.00054560
     atom  255 type  1   force =    -0.00000001   -0.00019482    0.00054449
     atom  256 type  1   force =     0.00000000   -0.00019480    0.00054451
     atom  257 type  1   force =     0.00000121   -0.00019375    0.00054562
     atom  258 type  1   force =     0.00000121   -0.00019377    0.00054561
     atom  259 type  1   force =     0.00000121   -0.00019376    0.00054557
     atom  260 type  1   force =    -0.00000086    0.00018811   -0.00042747
     atom  261 type  1   force =     0.00000000    0.00018743   -0.00042708
     atom  262 type  1   force =    -0.00000118   -0.00019379    0.00054557
     atom  263 type  1   force =     0.00000001   -0.00019483    0.00054447
     atom  264 type  1   force =     0.00000120   -0.00019380    0.00054557
     atom  265 type  1   force =     0.00000000    0.00045141    0.00049963
     atom  266 type  1   force =     0.00000000    0.00045132    0.00049957
     atom  267 type  1   force =     0.00000136    0.00045161    0.00049852
     atom  268 type  1   force =     0.00000136    0.00045151    0.00049847
     atom  269 type  1   force =    -0.00000134    0.00045160    0.00049854
     atom  270 type  1   force =     0.00000000    0.00045140    0.00049964
     atom  271 type  1   force =     0.00000134    0.00045160    0.00049854
     atom  272 type  1   force =    -0.00000018   -0.00028626    0.00072659
     atom  273 type  1   force =    -0.00000001   -0.00028593    0.00072792
     atom  274 type  1   force =     0.00000019   -0.00028624    0.00072662
     atom  275 type  1   force =     0.00000000    0.00045138    0.00049953
     atom  276 type  1   force =     0.00000136    0.00045148    0.00049843
     atom  277 type  1   force =     0.00000137    0.00045151    0.00049841
     atom  278 type  1   force =    -0.00000134    0.00045147    0.00049845
     atom  279 type  1   force =    -0.00000134    0.00045151    0.00049842
     atom  280 type  1   force =     0.00000000    0.00045132    0.00049957
     atom  281 type  1   force =     0.00000000    0.00045136    0.00049955
     atom  282 type  1   force =     0.00000134    0.00045151    0.00049849
     atom  283 type  1   force =     0.00000134    0.00045147    0.00049845
     atom  284 type  1   force =     0.00000134    0.00045151    0.00049842
     atom  285 type  1   force =    -0.00000136    0.00045151    0.00049847
     atom  286 type  1   force =    -0.00000136    0.00045148    0.00049843
     atom  287 type  1   force =    -0.00000137    0.00045151    0.00049841
     atom  288 type  1   force =    -0.00000019   -0.00028629    0.00072654
     atom  289 type  1   force =    -0.00000018   -0.00028631    0.00072653
     atom  290 type  1   force =    -0.00000018   -0.00028632    0.00072657
     atom  291 type  1   force =     0.00000001   -0.00028593    0.00072787
     atom  292 type  1   force =     0.00000000   -0.00028594    0.00072786
     atom  293 type  1   force =     0.00000001   -0.00028596    0.00072789
     atom  294 type  1   force =     0.00000020   -0.00028628    0.00072656
     atom  295 type  1   force =     0.00000019   -0.00028630    0.00072655
     atom  296 type  1   force =     0.00000020   -0.00028631    0.00072656
     atom  297 type  1   force =    -0.00000019   -0.00028624    0.00072662
     atom  298 type  1   force =    -0.00000020   -0.00028628    0.00072656
     atom  299 type  1   force =    -0.00000019   -0.00028630    0.00072655
     atom  300 type  1   force =    -0.00000020   -0.00028631    0.00072656
     atom  301 type  1   force =     0.00000001   -0.00028593    0.00072792
     atom  302 type  1   force =    -0.00000001   -0.00028593    0.00072787
     atom  303 type  1   force =    -0.00000000   -0.00028594    0.00072786
     atom  304 type  1   force =     0.00000018   -0.00028626    0.00072659
     atom  305 type  1   force =     0.00000019   -0.00028629    0.00072654
     atom  306 type  1   force =     0.00000018   -0.00028631    0.00072653
     atom  307 type  1   force =     0.00000000    0.00045130    0.00049956
     atom  308 type  1   force =    -0.00000134    0.00045151    0.00049849
     atom  309 type  1   force =     0.00000000    0.00045133    0.00049960
     atom  310 type  1   force =    -0.00000136    0.00045161    0.00049852
     atom  311 type  1   force =    -0.00000001   -0.00028596    0.00072789
     atom  312 type  1   force =     0.00000018   -0.00028632    0.00072657
     atom  313 type  1   force =     0.00000034   -0.00056062    0.00382888
     atom  314 type  1   force =     0.00000002   -0.00056094    0.00382635
     atom  315 type  1   force =    -0.00000034   -0.00056065    0.00382895
     atom  316 type  1   force =     0.00000032   -0.00056073    0.00382901
     atom  317 type  1   force =    -0.00000002   -0.00056105    0.00382645
     atom  318 type  1   force =    -0.00000036   -0.00056075    0.00382899
     atom  319 type  1   force =     0.00000107    0.00053401   -0.00458401
     atom  320 type  1   force =    -0.00000102    0.00053405   -0.00458387
     atom  321 type  1   force =     0.00000000    0.00053381   -0.00458333
     atom  322 type  1   force =     0.00000102    0.00053405   -0.00458387
     atom  323 type  1   force =    -0.00000108    0.00053401   -0.00458385
     atom  324 type  1   force =     0.00000000    0.00053377   -0.00458334
     atom  325 type  1   force =     0.00000037   -0.00056058    0.00382894
     atom  326 type  1   force =     0.00000036   -0.00056075    0.00382899
     atom  327 type  1   force =     0.00000035   -0.00056051    0.00382886
     atom  328 type  1   force =     0.00000004   -0.00056090    0.00382643
     atom  329 type  1   force =     0.00000002   -0.00056105    0.00382645
     atom  330 type  1   force =    -0.00000032   -0.00056056    0.00382893
     atom  331 type  1   force =    -0.00000032   -0.00056073    0.00382901
     atom  332 type  1   force =     0.00000032   -0.00056056    0.00382893
     atom  333 type  1   force =     0.00000034   -0.00056065    0.00382895
     atom  334 type  1   force =    -0.00000004   -0.00056090    0.00382643
     atom  335 type  1   force =    -0.00000037   -0.00056058    0.00382894
     atom  336 type  1   force =     0.00000108    0.00053401   -0.00458385
     atom  337 type  1   force =     0.00000107    0.00053405   -0.00458395
     atom  338 type  1   force =     0.00000105    0.00053411   -0.00458395
     atom  339 type  1   force =    -0.00000103    0.00053398   -0.00458387
     atom  340 type  1   force =    -0.00000105    0.00053402   -0.00458400
     atom  341 type  1   force =     0.00000000    0.00053377   -0.00458327
     atom  342 type  1   force =     0.00000000    0.00053377   -0.00458343
     atom  343 type  1   force =     0.00000103    0.00053398   -0.00458387
     atom  344 type  1   force =     0.00000105    0.00053402   -0.00458400
     atom  345 type  1   force =    -0.00000107    0.00053405   -0.00458395
     atom  346 type  1   force =     0.00000000    0.00053384   -0.00458340
     atom  347 type  1   force =     0.00000006   -0.00056080    0.00382635
     atom  348 type  1   force =    -0.00000033   -0.00056052    0.00382886
     atom  349 type  1   force =     0.00000033   -0.00056052    0.00382886
     atom  350 type  1   force =    -0.00000002   -0.00056094    0.00382635
     atom  351 type  1   force =    -0.00000006   -0.00056080    0.00382635
     atom  352 type  1   force =    -0.00000034   -0.00056062    0.00382888
     atom  353 type  1   force =    -0.00000035   -0.00056051    0.00382886
     atom  354 type  1   force =    -0.00000104    0.00053413   -0.00458392
     atom  355 type  1   force =     0.00000000    0.00053386   -0.00458331
     atom  356 type  1   force =     0.00000104    0.00053413   -0.00458392
     atom  357 type  1   force =    -0.00000107    0.00053401   -0.00458401
     atom  358 type  1   force =    -0.00000105    0.00053411   -0.00458395
     atom  359 type  1   force =     0.00000000    0.00053373   -0.00458346
     atom  360 type  1   force =     0.00000000    0.00053387   -0.00458337
     atom  361 type  1   force =    -0.00000017   -0.00335703    0.01651113
     atom  362 type  1   force =     0.00000025   -0.00335698    0.01651117
     atom  363 type  1   force =     0.00000000   -0.00335829    0.01651434
     atom  364 type  1   force =    -0.00000025   -0.00335703    0.01651155
     atom  365 type  1   force =     0.00000009   -0.00335701    0.01651139
     atom  366 type  1   force =     0.00000000   -0.00335799    0.01651418
     atom  367 type  1   force =    -0.00000058    0.00159974    0.00960643
     atom  368 type  1   force =     0.00000005    0.00160055    0.00960949
     atom  369 type  1   force =     0.00000063    0.00159968    0.00960664
     atom  370 type  1   force =    -0.00000063    0.00159968    0.00960664
     atom  371 type  1   force =    -0.00000006    0.00160072    0.00960976
     atom  372 type  1   force =     0.00000060    0.00159980    0.00960681
     atom  373 type  1   force =    -0.00000016   -0.00335675    0.01651141
     atom  374 type  1   force =    -0.00000009   -0.00335701    0.01651139
     atom  375 type  1   force =    -0.00000011   -0.00335685    0.01651106
     atom  376 type  1   force =     0.00000026   -0.00335682    0.01651144
     atom  377 type  1   force =     0.00000025   -0.00335703    0.01651155
     atom  378 type  1   force =     0.00000000   -0.00335805    0.01651444
     atom  379 type  1   force =     0.00000000   -0.00335828    0.01651398
     atom  380 type  1   force =    -0.00000026   -0.00335682    0.01651144
     atom  381 type  1   force =    -0.00000025   -0.00335698    0.01651117
     atom  382 type  1   force =     0.00000016   -0.00335675    0.01651141
     atom  383 type  1   force =     0.00000000   -0.00335839    0.01651424
     atom  384 type  1   force =    -0.00000060    0.00159980    0.00960681
     atom  385 type  1   force =    -0.00000055    0.00159960    0.00960661
     atom  386 type  1   force =    -0.00000050    0.00159995    0.00960657
     atom  387 type  1   force =     0.00000006    0.00160072    0.00960976
     atom  388 type  1   force =     0.00000007    0.00160064    0.00960922
     atom  389 type  1   force =     0.00000065    0.00159975    0.00960690
     atom  390 type  1   force =     0.00000059    0.00159977    0.00960653
     atom  391 type  1   force =    -0.00000065    0.00159975    0.00960690
     atom  392 type  1   force =    -0.00000059    0.00159977    0.00960653
     atom  393 type  1   force =    -0.00000005    0.00160055    0.00960949
     atom  394 type  1   force =     0.00000055    0.00159960    0.00960661
     atom  395 type  1   force =     0.00000021   -0.00335678    0.01651122
     atom  396 type  1   force =     0.00000000   -0.00335810    0.01651397
     atom  397 type  1   force =    -0.00000021   -0.00335678    0.01651122
     atom  398 type  1   force =     0.00000017   -0.00335703    0.01651113
     atom  399 type  1   force =     0.00000011   -0.00335685    0.01651106
     atom  400 type  1   force =     0.00000000   -0.00335829    0.01651380
     atom  401 type  1   force =     0.00000000   -0.00335798    0.01651384
     atom  402 type  1   force =     0.00000011    0.00160086    0.00960946
     atom  403 type  1   force =     0.00000060    0.00159994    0.00960671
     atom  404 type  1   force =    -0.00000060    0.00159994    0.00960671
     atom  405 type  1   force =    -0.00000007    0.00160064    0.00960922
     atom  406 type  1   force =    -0.00000011    0.00160086    0.00960946
     atom  407 type  1   force =     0.00000058    0.00159974    0.00960643
     atom  408 type  1   force =     0.00000050    0.00159995    0.00960657
     atom  409 type  1   force =    -0.00000025    0.00164776   -0.02671865
     atom  410 type  1   force =     0.00000024    0.00164752   -0.02671248
     atom  411 type  1   force =     0.00000026    0.00164756   -0.02671809
     atom  412 type  1   force =    -0.00000026    0.00164756   -0.02671809
     atom  413 type  1   force =    -0.00000002    0.00164725   -0.02671199
     atom  414 type  1   force =     0.00000025    0.00164813   -0.02671803
     atom  415 type  1   force =    -0.00000025    0.00164813   -0.02671803
     atom  416 type  1   force =    -0.00000007    0.00164761   -0.02671803
     atom  417 type  1   force =    -0.00000010    0.00164824   -0.02671852
     atom  418 type  1   force =     0.00000006    0.00164781   -0.02671177
     atom  419 type  1   force =     0.00000002    0.00164725   -0.02671199
     atom  420 type  1   force =     0.00000038    0.00164822   -0.02671805
     atom  421 type  1   force =     0.00000027    0.00164776   -0.02671833
     atom  422 type  1   force =    -0.00000038    0.00164822   -0.02671805
     atom  423 type  1   force =    -0.00000027    0.00164776   -0.02671833
     atom  424 type  1   force =    -0.00000006    0.00164781   -0.02671177
     atom  425 type  1   force =     0.00000007    0.00164761   -0.02671803
     atom  426 type  1   force =    -0.00000026    0.00164834   -0.02671823
     atom  427 type  1   force =     0.00000000    0.00164803   -0.02671241
     atom  428 type  1   force =     0.00000010    0.00164824   -0.02671852
     atom  429 type  1   force =    -0.00000000    0.00164803   -0.02671241
     atom  430 type  1   force =     0.00000026    0.00164834   -0.02671823
     atom  431 type  1   force =    -0.00000024    0.00164752   -0.02671248
     atom  432 type  1   force =     0.00000025    0.00164776   -0.02671865

     Total force =     0.233277     Total SCF correction =     0.003558
 
     init_run     :    173.39s CPU     49.49s WALL (       1 calls)
     electrons    :  14694.36s CPU   3906.49s WALL (       1 calls)
     forces       :     93.06s CPU     27.80s WALL (       1 calls)

     Called by init_run:
     wfcinit      :    164.78s CPU     44.00s WALL (       1 calls)
     potinit      :      1.70s CPU      0.47s WALL (       1 calls)
     hinit0       :      2.40s CPU      0.98s WALL (       1 calls)

     Called by electrons:
     c_bands      :  13597.68s CPU   3608.58s WALL (      28 calls)
     sum_band     :   1048.90s CPU    283.98s WALL (      28 calls)
     v_of_rho     :     19.37s CPU      5.15s WALL (      28 calls)
     newd         :     20.88s CPU      6.85s WALL (      28 calls)
     mix_rho      :      4.84s CPU      1.27s WALL (      28 calls)

     Called by c_bands:
     init_us_2    :     20.22s CPU      5.52s WALL (      57 calls)
     cegterg      :  13423.70s CPU   3497.54s WALL (      29 calls)

     Called by *egterg:
     cdiaghg      :   3607.55s CPU    971.20s WALL (     254 calls)
     h_psi        :   4187.44s CPU   1088.22s WALL (     256 calls)
     s_psi        :   1217.35s CPU    307.55s WALL (     256 calls)
     g_psi        :      5.45s CPU      1.37s WALL (     226 calls)

     Called by h_psi:
     h_psi:calbec :   1164.70s CPU    317.23s WALL (     256 calls)
     vloc_psi     :   1843.09s CPU    468.83s WALL (     256 calls)
     add_vuspsi   :   1168.97s CPU    297.81s WALL (     256 calls)

     General routines
     calbec       :   1733.95s CPU    471.82s WALL (     288 calls)
     fft          :     15.70s CPU      4.11s WALL (     374 calls)
     ffts         :      1.62s CPU      0.43s WALL (      56 calls)
     fftw         :   2209.27s CPU    563.39s WALL (  444328 calls)
     interpolate  :      1.81s CPU      0.48s WALL (      28 calls)
 
     Parallel routines
     fft_scatt_xy :    176.52s CPU     44.54s WALL (  444758 calls)
     fft_scatt_yz :   1438.00s CPU    368.91s WALL (  444758 calls)
 
     PWSCF        :      4h 9m CPU      1h 6m WALL

 
   This run was terminated on:  19:22:42  15Sep2021            

=------------------------------------------------------------------------------=
   JOB DONE.
=------------------------------------------------------------------------------=
