
     Program PWSCF v.6.6 starts on  8Sep2021 at  2:48: 4 

     This program is part of the open-source Quantum ESPRESSO suite
     for quantum simulation of materials; please cite
         "P. Giannozzi et al., J. Phys.:Condens. Matter 21 395502 (2009);
         "P. Giannozzi et al., J. Phys.:Condens. Matter 29 465901 (2017);
          URL http://www.quantum-espresso.org", 
     in publications or presentations arising from this work. More details at
     http://www.quantum-espresso.org/quote

     Parallel version (MPI & OpenMP), running on     384 processor cores
     Number of MPI processes:               192
     Threads/MPI process:                     2

     MPI processes distributed on     8 nodes
     K-points division:     npool     =       4
     R & G space division:  proc/nbgrp/npool/nimage =      48
     Fft bands division:     nmany     =       1
     Reading input from ../inputs/input_ausurf_72

     Current dimensions of program PWSCF are:
     Max number of different atomic species (ntypx) = 10
     Max number of k-points (npk) =  40000
     Max angular momentum in pseudopotentials (lmaxx) =  3

     Subspace diagonalization in iterative solution of the eigenvalue problem:
     one sub-group per band group will be used
     ELPA distributed-memory algorithm (size of sub-group:  6*  6 procs)

     Found symmetry operation: I + ( -0.5000  0.0000  0.0000)
     This is a supercell, fractional translations are disabled
 
     Parallelization info
     --------------------
     sticks:   dense  smooth     PW     G-vecs:    dense   smooth      PW
     Min         125      56     15                29681     9158    1305
     Max         126      57     16                29701     9189    1324
     Sum        6001    2733    755              1425285   440649   63085
 

     Title: 
      Ausurf                                                                    


     bravais-lattice index     =            8
     lattice parameter (alat)  =      11.1494  a.u.
     unit-cell volume          =   12888.9871 (a.u.)^3
     number of atoms/cell      =           72
     number of atomic types    =            1
     number of electrons       =       792.00
     number of Kohn-Sham states=          475
     kinetic-energy cutoff     =      40.0000  Ry
     charge density cutoff     =     350.0000  Ry
     convergence threshold     =      1.0E-06
     mixing beta               =       0.7000
     number of iterations used =            8  TF        mixing
     Exchange-correlation=  SLA  PW   PBE  PBE
                           (   1   4   3   4   0   0   0)

     celldm(1)=  11.149384  celldm(2)=   1.732051  celldm(3)=   5.369150
     celldm(4)=   0.000000  celldm(5)=   0.000000  celldm(6)=   0.000000

     crystal axes: (cart. coord. in units of alat)
               a(1) = (   1.000000   0.000000   0.000000 )  
               a(2) = (   0.000000   1.732051   0.000000 )  
               a(3) = (   0.000000   0.000000   5.369150 )  

     reciprocal axes: (cart. coord. in units 2 pi/alat)
               b(1) = (  1.000000  0.000000  0.000000 )  
               b(2) = (  0.000000  0.577350  0.000000 )  
               b(3) = (  0.000000  0.000000  0.186249 )  


     PseudoPot. # 1 for Au read from file:
     /marconi/home/userexternal/czeni000/dft_src/pseudo/Au.pbe-nd-van.UPF
     MD5 check sum: deb5c07af10777505a79e28f5b4b4115
     Pseudo is Ultrasoft + core correction, Zval = 11.0
     Generated by new atomic code, or converted to UPF format
     Using radial grid of  985 points,  3 beta functions with: 
                l(1) =   1
                l(2) =   2
                l(3) =   2
     Q(r) pseudized with  8 coefficients,  rinner =    1.100   1.100   1.100
                                                       1.100   1.100

     atomic species   valence    mass     pseudopotential
        Au            11.00   196.96000     Au( 1.00)

      2 Sym. Ops. (no inversion) found



   Cartesian axes

     site n.     atom                  positions (alat units)
         1           Au  tau(   1) = (   0.0000000   0.0000000   0.0000000  )
         2           Au  tau(   2) = (   0.5000000   0.0000000   0.0000000  )
         3           Au  tau(   3) = (   0.0000000   0.8660254   0.0000000  )
         4           Au  tau(   4) = (   0.5000000   0.8660254   0.0000000  )
         5           Au  tau(   5) = (   0.2500000   0.1443376   0.4082483  )
         6           Au  tau(   6) = (   0.7500000   0.1443376   0.4082483  )
         7           Au  tau(   7) = (   0.2500000   1.0103631   0.4082483  )
         8           Au  tau(   8) = (   0.7500000   1.0103631   0.4082483  )
         9           Au  tau(   9) = (   0.5000000   0.5773503   0.4082483  )
        10           Au  tau(  10) = (   0.5000000   1.4433756   0.4082483  )
        11           Au  tau(  11) = (   1.0000000   0.5773503   0.4082483  )
        12           Au  tau(  12) = (   1.0000000   1.4433756   0.4082483  )
        13           Au  tau(  13) = (   0.5000000   0.2886751   0.8164966  )
        14           Au  tau(  14) = (   1.0000000   0.2886751   0.8164966  )
        15           Au  tau(  15) = (   0.2500000   0.7216878   0.8164966  )
        16           Au  tau(  16) = (   0.7500000   0.7216878   0.8164966  )
        17           Au  tau(  17) = (   0.5000000   1.1547005   0.8164966  )
        18           Au  tau(  18) = (   1.0000000   1.1547005   0.8164966  )
        19           Au  tau(  19) = (   0.2500000   1.5877132   0.8164966  )
        20           Au  tau(  20) = (   0.7500000   1.5877132   0.8164966  )
        21           Au  tau(  21) = (   0.0000000   0.0000000   1.2247449  )
        22           Au  tau(  22) = (   0.5000000   0.0000000   1.2247449  )
        23           Au  tau(  23) = (   0.2500000   0.4330127   1.2247449  )
        24           Au  tau(  24) = (   0.5000000   0.8660254   1.2247449  )
        25           Au  tau(  25) = (   0.2500000   1.2990381   1.2247449  )
        26           Au  tau(  26) = (   0.7500000   0.4330127   1.2247449  )
        27           Au  tau(  27) = (   0.7500000   1.2990381   1.2247449  )
        28           Au  tau(  28) = (   0.0000000   0.8660254   1.2247449  )
        29           Au  tau(  29) = (   0.2500000   1.0103631   1.6329932  )
        30           Au  tau(  30) = (   1.0000000   0.5773503   1.6329932  )
        31           Au  tau(  31) = (   0.2500000   0.1443376   1.6329932  )
        32           Au  tau(  32) = (   0.7500000   0.1443376   1.6329932  )
        33           Au  tau(  33) = (   0.7500000   1.0103631   1.6329932  )
        34           Au  tau(  34) = (   0.5000000   0.5773503   1.6329932  )
        35           Au  tau(  35) = (   0.5000000   1.4433756   1.6329932  )
        36           Au  tau(  36) = (   1.0000000   1.4433756   1.6329932  )
        37           Au  tau(  37) = (   0.5000000   0.2886751   2.0412415  )
        38           Au  tau(  38) = (   1.0000000   0.2886751   2.0412415  )
        39           Au  tau(  39) = (   0.2500000   0.7216878   2.0412415  )
        40           Au  tau(  40) = (   0.7500000   0.7216878   2.0412415  )
        41           Au  tau(  41) = (   0.7500000   1.5877132   2.0412415  )
        42           Au  tau(  42) = (   0.5000000   1.1547005   2.0412415  )
        43           Au  tau(  43) = (   1.0000000   1.1547005   2.0412415  )
        44           Au  tau(  44) = (   0.2500000   1.5877132   2.0412415  )
        45           Au  tau(  45) = (   0.0000000   0.0000000   2.4494897  )
        46           Au  tau(  46) = (   0.0000000   0.8660254   2.4494897  )
        47           Au  tau(  47) = (   0.5000000   0.0000000   2.4494897  )
        48           Au  tau(  48) = (   0.5000000   0.8660254   2.4494897  )
        49           Au  tau(  49) = (   0.2500000   0.4330127   2.4494897  )
        50           Au  tau(  50) = (   0.7500000   0.4330127   2.4494897  )
        51           Au  tau(  51) = (   0.2500000   1.2990381   2.4494897  )
        52           Au  tau(  52) = (   0.7500000   1.2990381   2.4494897  )
        53           Au  tau(  53) = (   1.0000000   1.4433756   2.8577380  )
        54           Au  tau(  54) = (   0.2500000   0.1443376   2.8577380  )
        55           Au  tau(  55) = (   0.2500000   1.0103631   2.8577380  )
        56           Au  tau(  56) = (   0.7500000   0.1443376   2.8577380  )
        57           Au  tau(  57) = (   0.7500000   1.0103631   2.8577380  )
        58           Au  tau(  58) = (   0.5000000   0.5773503   2.8577380  )
        59           Au  tau(  59) = (   0.5000000   1.4433756   2.8577380  )
        60           Au  tau(  60) = (   1.0000000   0.5773503   2.8577380  )
        61           Au  tau(  61) = (   0.7500000   1.5877132   3.2659863  )
        62           Au  tau(  62) = (   0.5000000   0.2886751   3.2659863  )
        63           Au  tau(  63) = (   0.5000000   1.1547005   3.2659863  )
        64           Au  tau(  64) = (   1.0000000   0.2886751   3.2659863  )
        65           Au  tau(  65) = (   1.0000000   1.1547005   3.2659863  )
        66           Au  tau(  66) = (   0.2500000   0.7216878   3.2659863  )
        67           Au  tau(  67) = (   0.2500000   1.5877132   3.2659863  )
        68           Au  tau(  68) = (   0.7500000   0.7216878   3.2659863  )
        69           Au  tau(  69) = (   0.2500000   0.4330127   3.6742346  )
        70           Au  tau(  70) = (   0.2500000   1.2990381   3.6742346  )
        71           Au  tau(  71) = (   0.7500000   0.4330127   3.6742346  )
        72           Au  tau(  72) = (   0.7500000   1.2990381   3.6742346  )

     number of k points=    18  Marzari-Vanderbilt smearing, width (Ry)=  0.0500
                       cart. coord. in units 2pi/alat
        k(    1) = (   0.0416667   0.0481125   0.0000000), wk =   0.1111111
        k(    2) = (   0.0416667   0.1443376   0.0000000), wk =   0.1111111
        k(    3) = (   0.0416667   0.2405626   0.0000000), wk =   0.1111111
        k(    4) = (   0.1250000   0.0481125   0.0000000), wk =   0.1111111
        k(    5) = (   0.1250000   0.1443376   0.0000000), wk =   0.1111111
        k(    6) = (   0.1250000   0.2405626   0.0000000), wk =   0.1111111
        k(    7) = (   0.2083333   0.0481125   0.0000000), wk =   0.1111111
        k(    8) = (   0.2083333   0.1443376   0.0000000), wk =   0.1111111
        k(    9) = (   0.2083333   0.2405626   0.0000000), wk =   0.1111111
        k(   10) = (   0.2916667   0.0481125   0.0000000), wk =   0.1111111
        k(   11) = (   0.2916667   0.1443376   0.0000000), wk =   0.1111111
        k(   12) = (   0.2916667   0.2405626   0.0000000), wk =   0.1111111
        k(   13) = (   0.3750000   0.0481125   0.0000000), wk =   0.1111111
        k(   14) = (   0.3750000   0.1443376   0.0000000), wk =   0.1111111
        k(   15) = (   0.3750000   0.2405626   0.0000000), wk =   0.1111111
        k(   16) = (   0.4583333   0.0481125   0.0000000), wk =   0.1111111
        k(   17) = (   0.4583333   0.1443376   0.0000000), wk =   0.1111111
        k(   18) = (   0.4583333   0.2405626   0.0000000), wk =   0.1111111

     Dense  grid:  1425285 G-vectors     FFT dimensions: (  72, 120, 360)

     Smooth grid:   440649 G-vectors     FFT dimensions: (  45,  80, 243)

     Estimated max dynamical RAM per process >     141.43 MB

     Estimated total dynamical RAM >      26.52 GB

     Initial potential from superposition of free atoms

     starting charge  791.16394, renormalised to  792.00000

     negative rho (up, down):  1.916E+00 0.000E+00
     Starting wfcs are  648 randomized atomic wfcs

     total cpu time spent up to now is        6.9 secs

     Self-consistent Calculation

     iteration #  1     ecut=    40.00 Ry     beta= 0.70
     Davidson diagonalization with overlap
     ethr =  1.00E-02,  avg # of iterations =  2.7

     Threshold (ethr) on eigenvalues was too large:
     Diagonalizing with lowered threshold

     Davidson diagonalization with overlap
     ethr =  3.34E-04,  avg # of iterations =  2.9

     negative rho (up, down):  1.820E+00 0.000E+00

     total cpu time spent up to now is       32.4 secs

     total energy              =   -7346.27261325 Ry
     estimated scf accuracy    <       3.14751135 Ry

     iteration #  2     ecut=    40.00 Ry     beta= 0.70
     Davidson diagonalization with overlap
     ethr =  3.97E-04,  avg # of iterations =  1.0

     negative rho (up, down):  1.926E+00 0.000E+00

     total cpu time spent up to now is       42.3 secs

     total energy              =   -7346.41232547 Ry
     estimated scf accuracy    <       1.40713416 Ry

     iteration #  3     ecut=    40.00 Ry     beta= 0.70
     Davidson diagonalization with overlap
     ethr =  1.78E-04,  avg # of iterations =  2.4

     negative rho (up, down):  2.029E+00 0.000E+00

     total cpu time spent up to now is       53.9 secs

     total energy              =   -7346.40387724 Ry
     estimated scf accuracy    <       0.82279008 Ry

     iteration #  4     ecut=    40.00 Ry     beta= 0.70
     Davidson diagonalization with overlap
     ethr =  1.04E-04,  avg # of iterations =  7.2

     negative rho (up, down):  2.026E+00 0.000E+00

     total cpu time spent up to now is       70.1 secs

     total energy              =   -7346.39076057 Ry
     estimated scf accuracy    <       0.40455813 Ry

     iteration #  5     ecut=    40.00 Ry     beta= 0.70
     Davidson diagonalization with overlap
     ethr =  5.11E-05,  avg # of iterations = 11.2

     negative rho (up, down):  1.975E+00 0.000E+00

     total cpu time spent up to now is       88.5 secs

     total energy              =   -7346.38494292 Ry
     estimated scf accuracy    <       0.24803526 Ry

     iteration #  6     ecut=    40.00 Ry     beta= 0.70
     Davidson diagonalization with overlap
     ethr =  3.13E-05,  avg # of iterations =  7.9

     negative rho (up, down):  1.978E+00 0.000E+00

     total cpu time spent up to now is      103.2 secs

     total energy              =   -7346.37772521 Ry
     estimated scf accuracy    <       0.23586045 Ry

     iteration #  7     ecut=    40.00 Ry     beta= 0.70
     Davidson diagonalization with overlap
     ethr =  2.98E-05,  avg # of iterations =  4.4

     negative rho (up, down):  1.988E+00 0.000E+00

     total cpu time spent up to now is      118.5 secs

     total energy              =   -7346.36817341 Ry
     estimated scf accuracy    <       0.24021721 Ry

     iteration #  8     ecut=    40.00 Ry     beta= 0.70
     Davidson diagonalization with overlap
     ethr =  2.98E-05,  avg # of iterations =  5.5

     negative rho (up, down):  2.018E+00 0.000E+00

     total cpu time spent up to now is      245.0 secs

     total energy              =   -7346.35451984 Ry
     estimated scf accuracy    <       0.14542068 Ry

     iteration #  9     ecut=    40.00 Ry     beta= 0.70
     Davidson diagonalization with overlap
     ethr =  1.84E-05,  avg # of iterations = 12.4

     negative rho (up, down):  2.008E+00 0.000E+00

     total cpu time spent up to now is      275.1 secs

     total energy              =   -7346.37127065 Ry
     estimated scf accuracy    <       0.18972483 Ry

     iteration # 10     ecut=    40.00 Ry     beta= 0.70
     Davidson diagonalization with overlap
     ethr =  1.84E-05,  avg # of iterations =  1.0

     negative rho (up, down):  2.040E+00 0.000E+00

     total cpu time spent up to now is      285.4 secs

     total energy              =   -7346.36194121 Ry
     estimated scf accuracy    <       0.11799799 Ry

     iteration # 11     ecut=    40.00 Ry     beta= 0.70
     Davidson diagonalization with overlap
     ethr =  1.49E-05,  avg # of iterations =  1.3

     negative rho (up, down):  2.045E+00 0.000E+00

     total cpu time spent up to now is      296.2 secs

     total energy              =   -7346.36845938 Ry
     estimated scf accuracy    <       0.06477297 Ry

     iteration # 12     ecut=    40.00 Ry     beta= 0.70
     Davidson diagonalization with overlap
     ethr =  8.18E-06,  avg # of iterations =  2.2

     negative rho (up, down):  2.069E+00 0.000E+00

     total cpu time spent up to now is      307.8 secs

     total energy              =   -7346.35291377 Ry
     estimated scf accuracy    <       0.11835614 Ry

     iteration # 13     ecut=    40.00 Ry     beta= 0.70
     Davidson diagonalization with overlap
     c_bands:  2 eigenvalues not converged
     c_bands:  1 eigenvalues not converged
     ethr =  8.18E-06,  avg # of iterations = 11.5

     negative rho (up, down):  2.024E+00 0.000E+00

     total cpu time spent up to now is      325.7 secs

     total energy              =   -7346.35474472 Ry
     estimated scf accuracy    <       0.01216136 Ry

     iteration # 14     ecut=    40.00 Ry     beta= 0.70
     Davidson diagonalization with overlap
     ethr =  1.54E-06,  avg # of iterations = 10.9

     negative rho (up, down):  2.008E+00 0.000E+00

     total cpu time spent up to now is      350.5 secs

     total energy              =   -7346.35796617 Ry
     estimated scf accuracy    <       0.03241821 Ry

     iteration # 15     ecut=    40.00 Ry     beta= 0.70
     Davidson diagonalization with overlap
     ethr =  1.54E-06,  avg # of iterations =  2.4

     negative rho (up, down):  1.986E+00 0.000E+00

     total cpu time spent up to now is      362.3 secs

     total energy              =   -7346.35541919 Ry
     estimated scf accuracy    <       0.01571631 Ry

     iteration # 16     ecut=    40.00 Ry     beta= 0.70
     Davidson diagonalization with overlap
     ethr =  1.54E-06,  avg # of iterations =  8.8

     negative rho (up, down):  1.970E+00 0.000E+00

     total cpu time spent up to now is      380.5 secs

     total energy              =   -7346.35661116 Ry
     estimated scf accuracy    <       0.00044827 Ry

     iteration # 17     ecut=    40.00 Ry     beta= 0.70
     Davidson diagonalization with overlap
     ethr =  5.66E-08,  avg # of iterations =  9.9

     negative rho (up, down):  1.960E+00 0.000E+00

     total cpu time spent up to now is      400.1 secs

     total energy              =   -7346.35660868 Ry
     estimated scf accuracy    <       0.00010361 Ry

     iteration # 18     ecut=    40.00 Ry     beta= 0.70
     Davidson diagonalization with overlap
     ethr =  1.31E-08,  avg # of iterations = 12.5

     negative rho (up, down):  1.958E+00 0.000E+00

     total cpu time spent up to now is      419.4 secs

     total energy              =   -7346.35666434 Ry
     estimated scf accuracy    <       0.00002361 Ry

     iteration # 19     ecut=    40.00 Ry     beta= 0.70
     Davidson diagonalization with overlap
     ethr =  2.98E-09,  avg # of iterations =  5.4

     negative rho (up, down):  1.957E+00 0.000E+00

     total cpu time spent up to now is      434.0 secs

     total energy              =   -7346.35668973 Ry
     estimated scf accuracy    <       0.00000313 Ry

     iteration # 20     ecut=    40.00 Ry     beta= 0.70
     Davidson diagonalization with overlap
     ethr =  3.95E-10,  avg # of iterations =  3.9

     negative rho (up, down):  1.957E+00 0.000E+00

     total cpu time spent up to now is      446.7 secs

     total energy              =   -7346.35669791 Ry
     estimated scf accuracy    <       0.00000198 Ry

     iteration # 21     ecut=    40.00 Ry     beta= 0.70
     Davidson diagonalization with overlap
     ethr =  2.50E-10,  avg # of iterations =  3.7

     negative rho (up, down):  1.957E+00 0.000E+00

     total cpu time spent up to now is      459.1 secs

     End of self-consistent calculation

          k = 0.0417 0.0481 0.0000 ( 55126 PWs)   bands (ev):

    -0.8129  -0.4712   0.0255   0.5492   0.6015   0.8363   0.9651   1.1251
     1.2160   1.2464   1.4435   1.5574   1.5650   1.5684   1.6037   1.6144
     1.6195   1.7229   1.8477   1.8507   1.8522   1.8547   1.8642   1.8683
     1.9218   2.0303   2.0337   2.0407   2.1221   2.1228   2.1255   2.1516
     2.1521   2.1636   2.1715   2.2258   2.2293   2.2383   2.2442   2.2807
     2.3148   2.3181   2.3230   2.3338   2.3503   2.3812   2.3917   2.4116
     2.4166   2.4302   2.4408   2.4759   2.4837   2.4887   2.4953   2.5152
     2.5246   2.5464   2.5802   2.6022   2.6234   2.6416   2.6673   2.6688
     2.6847   2.7238   2.7341   2.7591   2.7690   2.7907   2.8248   2.8574
     2.9327   2.9404   2.9613   2.9795   3.0562   3.0695   3.0815   3.0835
     3.1172   3.1480   3.1696   3.1762   3.1947   3.2140   3.2337   3.2613
     3.2910   3.3218   3.3244   3.3319   3.3438   3.3608   3.3695   3.3759
     3.4219   3.4496   3.4594   3.4758   3.4825   3.5091   3.5121   3.5481
     3.5628   3.5670   3.5869   3.6019   3.6076   3.6212   3.6469   3.6482
     3.6595   3.6847   3.6908   3.7320   3.7327   3.7657   3.7744   3.7790
     3.7921   3.7941   3.8015   3.8282   3.8525   3.8650   3.8698   3.8698
     3.8936   3.8953   3.9021   3.9073   3.9194   3.9261   3.9346   3.9389
     3.9496   3.9551   3.9554   3.9610   3.9636   3.9802   3.9878   3.9941
     4.0119   4.0262   4.0425   4.0732   4.0802   4.0868   4.0954   4.0993
     4.1079   4.1100   4.1179   4.1338   4.1400   4.1646   4.1655   4.1658
     4.1744   4.1755   4.1832   4.1890   4.1906   4.2009   4.2067   4.2186
     4.2379   4.2550   4.3003   4.3058   4.3145   4.3185   4.3219   4.3329
     4.3480   4.3579   4.3673   4.3704   4.3808   4.3828   4.3945   4.4297
     4.4315   4.4335   4.4526   4.4661   4.4686   4.4917   4.5097   4.5128
     4.5189   4.5250   4.5282   4.5336   4.5363   4.5974   4.6326   4.6592
     4.6927   4.6992   4.7084   4.7184   4.7252   4.7467   4.7515   4.7644
     4.7728   4.8138   4.8721   4.8810   4.8821   4.8919   4.8962   4.8990
     4.9029   4.9299   4.9597   4.9750   4.9811   4.9914   4.9990   5.0117
     5.0294   5.0307   5.0353   5.0605   5.0822   5.1088   5.1116   5.1244
     5.1281   5.1514   5.1541   5.1908   5.2014   5.2161   5.2236   5.2292
     5.2317   5.2364   5.2605   5.2615   5.2660   5.2704   5.2755   5.2829
     5.2962   5.3189   5.3271   5.3322   5.3344   5.3403   5.3473   5.3511
     5.3545   5.3752   5.4064   5.4199   5.4280   5.4314   5.4608   5.4792
     5.4888   5.4962   5.5163   5.5164   5.5400   5.5454   5.5510   5.5549
     5.5725   5.6062   5.6110   5.6412   5.6478   5.6786   5.6972   5.6999
     5.7302   5.7482   5.7566   5.7622   5.7907   5.8117   5.8306   5.8486
     5.8599   5.8654   5.8929   5.8973   5.9060   5.9253   5.9599   5.9770
     5.9780   5.9954   5.9963   6.0131   6.0740   6.0944   6.0977   6.1169
     6.1180   6.1337   6.1429   6.1658   6.1750   6.1793   6.1962   6.2014
     6.2066   6.2197   6.2314   6.2339   6.2347   6.2529   6.2598   6.2670
     6.2939   6.3038   6.3140   6.3279   6.3362   6.3461   6.3461   6.3477
     6.3609   6.3717   6.3762   6.3777   6.3789   6.3905   6.3922   6.3925
     6.3957   6.3980   6.3989   6.4286   6.4319   6.4325   6.4347   6.4386
     6.4516   6.4562   6.4651   6.4677   6.4864   6.5117   6.5126   6.5343
     6.5460   6.5486   6.5646   6.5714   6.5750   6.5871   6.5877   6.5958
     6.5991   6.6011   6.6085   6.6332   6.6382   6.6526   6.6705   6.6968
     6.6974   6.7190   6.7247   6.7565   6.7605   6.8337   6.8529   6.8763
     6.9124   6.9128   6.9557   7.0798   7.5266   7.6699   7.7396   7.7970
     7.7987   7.8522   8.0376   8.0477   8.1461   8.2409   8.2771   8.3596
     8.4534   8.4654   8.5507   8.5856   8.7138   8.7752   8.7833   8.7921
     8.9272   8.9468   8.9508   9.0403   9.0557   9.1042   9.1965   9.2727
     9.2777   9.2966   9.3531   9.4610   9.5885   9.6441   9.6612   9.7175
     9.7598   9.8306   9.9042   9.9109   9.9361   9.9943   9.9979  10.0744
    10.5293  10.6510  10.8568  10.8655  10.9820  11.0637  11.0765  11.1450
    11.2293  11.2589  11.2643  11.3281  11.3375  11.3824  11.4667  11.7284
    11.8211  11.8826  11.9531  12.0479  12.0586  12.0968  12.3380  12.3799
    12.4489  12.5509  12.6090  12.6161  12.6197  12.6452  12.7876  12.8467
    12.8748  13.2441  13.2843  13.3196  13.3837  13.4641  13.4915  13.6762
    13.6817  13.7255  13.8096  13.8228  13.8832  13.9530  13.9603  13.9939
    13.9953  14.0002  14.0079

          k = 0.0417 0.1443 0.0000 ( 55027 PWs)   bands (ev):

    -0.7120  -0.3720   0.1227   0.1367   0.4501   0.6974   0.9046   1.2202
     1.3073   1.4289   1.5339   1.5450   1.6054   1.6498   1.6506   1.6610
     1.6966   1.7919   1.8613   1.8866   1.8973   1.9035   1.9193   1.9251
     1.9444   2.0366   2.0574   2.0854   2.0993   2.1140   2.1520   2.1679
     2.1709   2.1738   2.1760   2.1997   2.2057   2.2133   2.2505   2.2573
     2.2770   2.2864   2.2877   2.2884   2.3123   2.3237   2.3385   2.3594
     2.3612   2.3626   2.4145   2.4228   2.4686   2.4860   2.4947   2.4996
     2.5088   2.5181   2.5195   2.5548   2.5682   2.5879   2.6430   2.6489
     2.6926   2.6954   2.7019   2.7022   2.7050   2.7114   2.7232   2.7433
     2.8036   2.8196   2.8705   2.8926   2.9247   3.0052   3.0105   3.0411
     3.0827   3.0889   3.1044   3.1303   3.1417   3.1627   3.2320   3.2377
     3.2487   3.2681   3.2914   3.3399   3.3500   3.3539   3.3744   3.4096
     3.4395   3.4520   3.4837   3.5019   3.5156   3.5242   3.5494   3.5560
     3.5843   3.5887   3.6151   3.6160   3.6200   3.6486   3.6779   3.6855
     3.6859   3.7021   3.7081   3.7496   3.7649   3.7670   3.7707   3.7864
     3.7915   3.8466   3.8507   3.8648   3.8923   3.9038   3.9096   3.9113
     3.9126   3.9279   3.9387   3.9444   3.9451   3.9480   3.9655   3.9764
     3.9776   3.9822   4.0007   4.0220   4.0220   4.0252   4.0562   4.0629
     4.0670   4.0735   4.0746   4.0850   4.1084   4.1158   4.1223   4.1398
     4.1463   4.1479   4.1739   4.1780   4.1813   4.1874   4.1914   4.1946
     4.1974   4.2188   4.2220   4.2238   4.2261   4.2318   4.2687   4.2716
     4.2826   4.3034   4.3078   4.3229   4.3272   4.3446   4.3491   4.3507
     4.3604   4.3784   4.3986   4.4045   4.4190   4.4232   4.4239   4.4320
     4.4576   4.4610   4.4623   4.4932   4.4935   4.5053   4.5336   4.5396
     4.5489   4.5569   4.5777   4.5802   4.5838   4.5906   4.5985   4.6126
     4.6307   4.6647   4.6704   4.6893   4.7064   4.7170   4.7478   4.7951
     4.8047   4.8209   4.8263   4.8333   4.8598   4.8663   4.8960   4.9185
     4.9265   4.9464   4.9467   4.9663   4.9751   4.9818   4.9849   4.9993
     5.0121   5.0273   5.0478   5.0520   5.0840   5.0935   5.0984   5.1168
     5.1296   5.1356   5.1718   5.1824   5.2014   5.2201   5.2386   5.2517
     5.2545   5.2574   5.2795   5.3213   5.3461   5.3468   5.3470   5.3597
     5.3710   5.3783   5.3929   5.3968   5.4099   5.4288   5.4372   5.4491
     5.4541   5.4708   5.4805   5.4942   5.4978   5.5077   5.5095   5.5265
     5.5379   5.5500   5.5537   5.5748   5.5793   5.5815   5.5886   5.6044
     5.6072   5.6129   5.6433   5.6511   5.6678   5.6711   5.7143   5.7284
     5.7295   5.7676   5.7740   5.7899   5.7914   5.7997   5.8345   5.8587
     5.8640   5.8780   5.8976   5.9035   5.9071   5.9140   5.9433   5.9479
     5.9722   5.9824   5.9841   6.0199   6.0236   6.0297   6.0378   6.0595
     6.1090   6.1183   6.1241   6.1253   6.1270   6.1466   6.1503   6.1564
     6.1591   6.1742   6.1937   6.2109   6.2146   6.2235   6.2278   6.2344
     6.2361   6.2504   6.2539   6.2716   6.2757   6.2758   6.2939   6.3004
     6.3010   6.3144   6.3145   6.3210   6.3224   6.3273   6.3342   6.3572
     6.3623   6.3664   6.3760   6.3838   6.3894   6.3907   6.3930   6.4003
     6.4265   6.4355   6.4492   6.4540   6.4583   6.4641   6.4653   6.4809
     6.4873   6.5050   6.5418   6.5432   6.5491   6.5641   6.5645   6.5678
     6.5866   6.5882   6.5971   6.5994   6.6022   6.6024   6.6267   6.6272
     6.7174   6.7183   6.7252   6.7445   6.7964   6.8301   6.8746   6.8774
     6.9106   6.9107   6.9660   7.1489   7.4629   7.4847   7.5677   7.6163
     7.6596   7.7837   7.7876   7.7931   7.9867   8.0369   8.0831   8.2065
     8.2357   8.2943   8.2999   8.4393   8.4792   8.5082   8.6560   8.6806
     8.7582   8.7940   8.9603   9.0337   9.0368   9.1522   9.1736   9.2184
     9.2661   9.4275   9.4830   9.7075   9.7080   9.7105   9.7677   9.7773
     9.9048   9.9557  10.0862  10.2303  10.3585  10.5417  10.6336  10.6516
    10.6522  10.6635  10.9775  11.0146  11.0273  11.1341  11.2090  11.2604
    11.3007  11.3339  11.3796  11.4415  11.5257  11.6091  11.6929  11.7722
    11.8430  11.8434  12.0152  12.0884  12.0923  12.0991  12.2303  12.2953
    12.4259  12.4476  12.5341  12.5529  12.5787  12.6667  12.7282  12.8306
    12.9240  12.9506  13.0059  13.1168  13.2777  13.3259  13.4002  13.4307
    13.4392  13.5570  13.6183  13.6329  13.6485  13.7157  13.7995  13.8986
    14.0117  14.0515  14.1028

          k = 0.0417 0.2406 0.0000 ( 55030 PWs)   bands (ev):

    -0.5138  -0.2261  -0.1778   0.1021   0.3118   0.5802   0.8822   1.1389
     1.4019   1.5058   1.5835   1.6433   1.7091   1.7517   1.7548   1.8040
     1.8168   1.8301   1.8557   1.9104   1.9393   1.9477   1.9732   1.9999
     2.0096   2.0105   2.0134   2.0286   2.0428   2.0658   2.0743   2.0846
     2.1273   2.1442   2.1467   2.1617   2.1689   2.1963   2.2341   2.2418
     2.2478   2.2735   2.2887   2.3028   2.3081   2.3383   2.3439   2.3702
     2.3809   2.3834   2.4081   2.4366   2.4397   2.4495   2.4516   2.4563
     2.4744   2.4767   2.5358   2.5380   2.5535   2.5682   2.5905   2.5945
     2.5987   2.6140   2.6170   2.6591   2.6638   2.6731   2.6933   2.7013
     2.7718   2.7725   2.7855   2.8062   2.8068   2.8491   2.8755   2.8759
     2.9229   2.9565   3.1222   3.1332   3.1401   3.1631   3.1811   3.1993
     3.2742   3.2792   3.3126   3.3275   3.3540   3.3779   3.3792   3.4050
     3.4214   3.5152   3.5320   3.5437   3.5538   3.5763   3.5856   3.5909
     3.5935   3.6248   3.6264   3.6298   3.6448   3.6924   3.6979   3.7045
     3.7201   3.7350   3.7437   3.7593   3.7595   3.7715   3.7853   3.7877
     3.8267   3.8467   3.8555   3.8571   3.8678   3.8683   3.9197   3.9235
     3.9410   3.9488   3.9530   3.9710   3.9758   3.9800   4.0154   4.0164
     4.0194   4.0419   4.0534   4.0580   4.0697   4.0710   4.0765   4.0790
     4.1023   4.1097   4.1198   4.1318   4.1394   4.1412   4.1500   4.1549
     4.1625   4.1695   4.1832   4.1871   4.1936   4.2004   4.2022   4.2051
     4.2183   4.2369   4.2543   4.2560   4.2740   4.2746   4.2887   4.2968
     4.3005   4.3062   4.3148   4.3225   4.3395   4.3506   4.3536   4.3689
     4.3692   4.3710   4.3816   4.3938   4.3996   4.4255   4.4667   4.4712
     4.4782   4.4854   4.4906   4.4956   4.4991   4.5050   4.5343   4.5355
     4.5361   4.5559   4.5745   4.5788   4.5863   4.6620   4.6804   4.6918
     4.7145   4.7189   4.7256   4.7308   4.7853   4.8014   4.8103   4.8150
     4.8177   4.8241   4.8261   4.8497   4.8595   4.8717   4.9011   4.9066
     4.9253   4.9585   4.9712   4.9820   5.0022   5.0065   5.0166   5.0249
     5.0343   5.0373   5.0844   5.0946   5.1094   5.1224   5.1293   5.1733
     5.1804   5.1999   5.2250   5.2311   5.2390   5.2410   5.2504   5.2590
     5.2741   5.2768   5.2858   5.2972   5.3266   5.3371   5.3444   5.3643
     5.3673   5.3731   5.3763   5.3767   5.3877   5.4029   5.4035   5.4091
     5.4729   5.4869   5.5334   5.5372   5.5424   5.5470   5.5778   5.5822
     5.5991   5.6076   5.6202   5.6321   5.6406   5.6680   5.6746   5.6967
     5.7080   5.7308   5.7311   5.7334   5.7484   5.7668   5.7698   5.7779
     5.8001   5.8289   5.8341   5.8374   5.8438   5.8539   5.8542   5.8571
     5.8575   5.9006   5.9035   5.9108   5.9490   5.9495   5.9588   5.9689
     5.9909   6.0095   6.0131   6.0142   6.0279   6.0361   6.0440   6.0478
     6.0536   6.0574   6.0719   6.0736   6.0766   6.0775   6.0907   6.0912
     6.1011   6.1246   6.1301   6.1450   6.1529   6.1687   6.1763   6.1842
     6.1929   6.1995   6.2058   6.2094   6.2255   6.2259   6.2353   6.2483
     6.2576   6.2636   6.2648   6.2657   6.2673   6.2731   6.2791   6.2827
     6.2912   6.2931   6.3071   6.3172   6.3338   6.3363   6.3497   6.3589
     6.3648   6.3701   6.3773   6.3778   6.4186   6.4244   6.4251   6.4424
     6.4454   6.4497   6.4743   6.5161   6.5467   6.5473   6.5484   6.5508
     6.5846   6.5854   6.5895   6.5920   6.5991   6.5996   6.6020   6.6043
     6.6626   6.7168   6.7247   6.7282   6.7395   6.8159   6.8258   6.8951
     6.8962   6.8973   6.9055   6.9062   6.9118   7.0667   7.4071   7.4967
     7.6143   7.6393   7.7172   7.8003   7.8510   7.8662   8.0290   8.0663
     8.1973   8.2647   8.3294   8.3615   8.4200   8.4214   8.5164   8.5961
     8.6836   8.8061   8.8540   9.0091   9.0219   9.1285   9.2262   9.2505
     9.3118   9.3896   9.7011   9.7303   9.7557   9.7803   9.7876   9.8688
    10.0744  10.2500  10.2529  10.4662  10.5445  10.5919  10.6434  10.7565
    10.7871  11.0499  11.1349  11.1946  11.2181  11.2268  11.2741  11.3419
    11.3897  11.4437  11.4824  11.6596  11.6621  11.7791  11.8063  11.8563
    11.9858  12.0116  12.1032  12.1128  12.1262  12.2554  12.3037  12.3200
    12.3470  12.4090  12.5246  12.5923  12.6219  12.6533  12.7046  12.7650
    12.8205  12.8497  12.9360  13.0712  13.0962  13.1679  13.2029  13.2840
    13.4464  13.4617  13.4632  13.5272  13.6557  13.6623  13.6885  13.8265
    13.8961  13.9581  14.1019

          k = 0.1250 0.0481 0.0000 ( 55079 PWs)   bands (ev):

    -0.7371  -0.3966   0.0989   0.6179   0.6743   0.9017   1.0349   1.1979
     1.2810   1.3082   1.5129   1.6013   1.6172   1.6297   1.6348   1.6504
     1.6768   1.7829   1.8490   1.8751   1.8937   1.8997   1.9019   1.9259
     1.9817   2.0480   2.0793   2.0925   2.1251   2.1391   2.1540   2.1634
     2.1652   2.2024   2.2212   2.2302   2.2416   2.2445   2.2811   2.2836
     2.2969   2.3111   2.3426   2.3517   2.3563   2.4043   2.4142   2.4362
     2.4404   2.4700   2.4725   2.4803   2.5226   2.5388   2.5418   2.5508
     2.5817   2.5908   2.6333   2.6410   2.6632   2.6765   2.6786   2.6938
     2.7239   2.7517   2.7860   2.7898   2.8261   2.8324   2.8638   2.9155
     2.9237   2.9483   2.9914   3.0344   3.0607   3.0732   3.0745   3.1141
     3.1540   3.1628   3.1773   3.1787   3.1960   3.2221   3.2577   3.2959
     3.2990   3.2994   3.3291   3.3325   3.3383   3.3596   3.3721   3.3883
     3.3902   3.4134   3.4376   3.4377   3.4694   3.4704   3.4855   3.5313
     3.5527   3.5593   3.5648   3.5678   3.6023   3.6090   3.6244   3.6292
     3.6442   3.6738   3.6971   3.7176   3.7216   3.7228   3.7296   3.7351
     3.7745   3.7777   3.8087   3.8156   3.8178   3.8415   3.8590   3.8599
     3.8755   3.8802   3.8837   3.8955   3.8984   3.9144   3.9332   3.9350
     3.9545   3.9558   3.9575   3.9663   3.9725   3.9766   3.9818   3.9839
     3.9898   4.0188   4.0325   4.0583   4.0635   4.0728   4.0746   4.0828
     4.0921   4.0989   4.1018   4.1098   4.1140   4.1380   4.1647   4.1684
     4.1782   4.1814   4.1846   4.1892   4.1916   4.1937   4.2005   4.2079
     4.2223   4.2289   4.2368   4.2463   4.2520   4.2926   4.3041   4.3122
     4.3212   4.3305   4.3596   4.3652   4.3674   4.3687   4.3838   4.3941
     4.4063   4.4134   4.4267   4.4378   4.4438   4.4619   4.4825   4.4978
     4.5011   4.5179   4.5230   4.5425   4.5430   4.5524   4.5696   4.6477
     4.6509   4.6737   4.6754   4.7123   4.7463   4.7705   4.7718   4.8046
     4.8270   4.8437   4.8544   4.8742   4.8807   4.8936   4.9179   4.9191
     4.9329   4.9342   4.9401   4.9459   4.9472   4.9516   4.9816   5.0068
     5.0114   5.0164   5.0434   5.0631   5.0667   5.0929   5.1001   5.1215
     5.1346   5.1392   5.1396   5.1516   5.1547   5.1930   5.2108   5.2260
     5.2272   5.2329   5.2500   5.2585   5.2604   5.2670   5.2864   5.3120
     5.3122   5.3245   5.3273   5.3357   5.3414   5.3537   5.3621   5.3641
     5.3692   5.4011   5.4060   5.4323   5.4524   5.4707   5.4779   5.5009
     5.5062   5.5086   5.5255   5.5506   5.5692   5.5725   5.5734   5.5810
     5.5984   5.5985   5.6382   5.6418   5.6502   5.6609   5.6851   5.6916
     5.7034   5.7297   5.7564   5.7598   5.7780   5.7906   5.7991   5.8006
     5.8398   5.8472   5.8642   5.8696   5.8738   5.8804   5.9236   5.9371
     5.9530   5.9699   6.0303   6.0321   6.0449   6.0553   6.0760   6.0792
     6.0887   6.0963   6.0985   6.1209   6.1315   6.1335   6.1564   6.1653
     6.1828   6.1833   6.2068   6.2207   6.2228   6.2246   6.2348   6.2379
     6.2488   6.2579   6.2690   6.2773   6.2823   6.2868   6.2921   6.2955
     6.3087   6.3122   6.3149   6.3269   6.3367   6.3452   6.3465   6.3499
     6.3561   6.3642   6.3676   6.3733   6.3754   6.3820   6.3938   6.3950
     6.4012   6.4101   6.4199   6.4471   6.4472   6.4793   6.4812   6.4823
     6.4835   6.5080   6.5084   6.5283   6.5346   6.5378   6.5397   6.5452
     6.5461   6.5505   6.5767   6.5944   6.6053   6.6249   6.6538   6.6557
     6.6613   6.6685   6.6789   6.7014   6.7482   6.7856   6.7882   6.8420
     6.8438   6.9537   7.0460   7.1245   7.1993   7.2039   7.3953   7.3983
     7.5526   7.6292   7.7219   7.7927   7.8827   7.9081   8.1020   8.1390
     8.1864   8.1908   8.2657   8.4425   8.5428   8.5573   8.7581   8.8449
     8.8610   8.9424   8.9856   9.0161   9.0977   9.1029   9.1660   9.1958
     9.3704   9.4414   9.4739   9.5982   9.7589   9.8114   9.8566   9.9074
    10.0291  10.0776  10.1009  10.1406  10.1419  10.3275  10.5030  10.5044
    10.7768  10.7969  10.9418  11.0387  11.0894  11.1636  11.2336  11.2417
    11.3476  11.3507  11.3926  11.4102  11.4691  11.5350  11.5749  11.7031
    11.9239  11.9536  11.9608  12.0719  12.0839  12.1052  12.1414  12.1802
    12.4425  12.4881  12.5527  12.6181  12.7002  12.7425  12.8207  12.8437
    12.9775  13.0319  13.2616  13.3351  13.4286  13.5814  13.5985  13.6312
    13.7214  13.7981  13.8116  13.9578  14.0052  14.0486  14.0592  14.0629
    14.1657  14.3021  14.4234

          k = 0.1250 0.1443 0.0000 ( 55061 PWs)   bands (ev):

    -0.6371  -0.2984   0.1948   0.2063   0.5171   0.7686   0.9683   1.2912
     1.3787   1.4917   1.6014   1.6107   1.6117   1.6684   1.7140   1.7257
     1.7567   1.8528   1.8594   1.9156   1.9239   1.9385   1.9573   1.9644
     1.9896   2.0035   2.0802   2.0954   2.1162   2.1473   2.1647   2.1686
     2.1982   2.2066   2.2216   2.2218   2.2394   2.2609   2.2717   2.2762
     2.3136   2.3213   2.3218   2.3235   2.3505   2.3771   2.3859   2.3883
     2.3930   2.3946   2.3984   2.4787   2.4794   2.4842   2.5097   2.5328
     2.5415   2.5528   2.5644   2.5866   2.6066   2.6156   2.6238   2.6829
     2.7090   2.7139   2.7270   2.7374   2.7618   2.7672   2.7713   2.7845
     2.8147   2.8643   2.8739   2.9333   2.9686   3.0244   3.0290   3.0910
     3.0985   3.1024   3.1243   3.1366   3.1503   3.1933   3.2460   3.2607
     3.2699   3.2986   3.2993   3.3421   3.3489   3.3813   3.4094   3.4149
     3.4221   3.4548   3.4608   3.4688   3.4800   3.4953   3.5255   3.5368
     3.5492   3.5528   3.5877   3.5906   3.6267   3.6390   3.6479   3.6633
     3.6771   3.6910   3.7236   3.7345   3.7373   3.7508   3.7994   3.8052
     3.8127   3.8246   3.8343   3.8367   3.8487   3.8728   3.8777   3.8915
     3.8967   3.9145   3.9165   3.9179   3.9223   3.9322   3.9486   3.9662
     3.9813   3.9920   3.9946   4.0119   4.0285   4.0294   4.0408   4.0427
     4.0445   4.0456   4.0593   4.0713   4.0817   4.1074   4.1099   4.1216
     4.1223   4.1504   4.1512   4.1612   4.1661   4.1692   4.1913   4.1935
     4.2028   4.2084   4.2120   4.2131   4.2285   4.2433   4.2485   4.2542
     4.2784   4.2839   4.2913   4.2995   4.3004   4.3218   4.3358   4.3456
     4.3469   4.3763   4.3769   4.3830   4.3852   4.4078   4.4101   4.4246
     4.4415   4.4465   4.4613   4.4695   4.5056   4.5159   4.5326   4.5452
     4.5524   4.5549   4.5565   4.5661   4.5811   4.5834   4.5966   4.6097
     4.6251   4.6418   4.6447   4.6708   4.6964   4.7052   4.7697   4.7799
     4.7990   4.8032   4.8192   4.8441   4.8509   4.8764   4.8797   4.8861
     4.9074   4.9075   4.9117   4.9255   4.9483   4.9551   4.9713   4.9714
     4.9753   4.9784   5.0303   5.0440   5.0698   5.0732   5.0772   5.0934
     5.1009   5.1180   5.1600   5.1610   5.1930   5.2104   5.2146   5.2369
     5.2451   5.2518   5.2812   5.2905   5.2969   5.3093   5.3285   5.3344
     5.3456   5.3613   5.3645   5.3700   5.3754   5.3878   5.3883   5.4065
     5.4296   5.4447   5.4532   5.4628   5.4636   5.4855   5.4912   5.4945
     5.4974   5.5317   5.5372   5.5373   5.5490   5.5739   5.5755   5.5951
     5.6160   5.6419   5.6433   5.6439   5.6787   5.6862   5.7087   5.7091
     5.7302   5.7420   5.7494   5.7689   5.7919   5.8193   5.8262   5.8406
     5.8545   5.8626   5.8959   5.9022   5.9136   5.9147   5.9401   5.9580
     5.9704   5.9796   6.0109   6.0272   6.0296   6.0558   6.0636   6.0662
     6.0719   6.0871   6.0907   6.1051   6.1143   6.1197   6.1341   6.1521
     6.1547   6.1610   6.1740   6.1889   6.1951   6.1992   6.2015   6.2024
     6.2083   6.2181   6.2201   6.2286   6.2426   6.2476   6.2498   6.2575
     6.2588   6.2647   6.2686   6.2731   6.2877   6.2886   6.2959   6.3146
     6.3294   6.3390   6.3470   6.3473   6.3549   6.3588   6.3710   6.3753
     6.3802   6.3881   6.3900   6.3968   6.4012   6.4317   6.4547   6.4667
     6.4733   6.4738   6.4739   6.4821   6.5068   6.5311   6.5367   6.5379
     6.5406   6.5450   6.5462   6.5507   6.5594   6.5800   6.5876   6.6145
     6.6569   6.6676   6.6833   6.7146   6.7910   6.7984   6.8401   6.8408
     6.9104   6.9559   6.9641   7.0723   7.0948   7.1915   7.2983   7.3759
     7.4282   7.4843   7.5299   7.6599   7.7033   7.7552   7.7589   7.8871
     7.9649   8.2564   8.2718   8.3176   8.3489   8.5147   8.7451   8.8107
     8.9663   8.9804   9.0037   9.0600   9.1493   9.2329   9.2551   9.2600
     9.3437   9.5719   9.6172   9.6503   9.7777   9.7893   9.8020   9.8867
     9.9663  10.1476  10.2437  10.3086  10.3247  10.5115  10.7338  10.7664
    10.7994  10.8090  11.0016  11.0536  11.1195  11.2009  11.2894  11.3368
    11.3812  11.4399  11.5396  11.5533  11.6096  11.6595  11.6727  11.7684
    11.8382  11.8471  11.9862  12.0658  12.1285  12.1627  12.2721  12.2965
    12.3098  12.4714  12.4877  12.5138  12.7128  12.8816  12.8886  12.9857
    13.0014  13.0878  13.2908  13.4126  13.4960  13.5277  13.5798  13.6132
    13.6137  13.6344  13.6813  13.8497  13.9058  14.0027  14.0576  14.1045
    14.1640  14.2007  14.2326

          k = 0.1250 0.2406 0.0000 ( 55022 PWs)   bands (ev):

    -0.4405  -0.1547  -0.1060   0.1715   0.3816   0.6470   0.9506   1.2039
     1.4700   1.5750   1.6491   1.6801   1.7087   1.7733   1.7998   1.8192
     1.8669   1.8783   1.9139   1.9189   1.9255   2.0014   2.0016   2.0130
     2.0351   2.0358   2.0690   2.0732   2.1040   2.1110   2.1239   2.1460
     2.1482   2.1539   2.1708   2.1914   2.1931   2.2157   2.2288   2.2861
     2.2884   2.2891   2.2921   2.3279   2.3414   2.3457   2.3625   2.3731
     2.3890   2.4179   2.4279   2.4339   2.4592   2.4735   2.4816   2.5062
     2.5110   2.5378   2.5473   2.5897   2.5897   2.5973   2.6016   2.6479
     2.6485   2.6627   2.6633   2.6757   2.7099   2.7333   2.7507   2.7532
     2.7624   2.7935   2.8118   2.8313   2.8660   2.8787   2.8938   2.9007
     2.9846   3.0231   3.1231   3.1447   3.1694   3.1761   3.2073   3.2239
     3.2934   3.3059   3.3243   3.3295   3.3596   3.3859   3.3860   3.4117
     3.4473   3.4624   3.4783   3.5043   3.5241   3.5343   3.5614   3.5627
     3.5891   3.5924   3.5983   3.6087   3.6497   3.6546   3.6589   3.7060
     3.7155   3.7247   3.7371   3.7468   3.7593   3.7662   3.7957   3.8030
     3.8272   3.8288   3.8381   3.8392   3.8569   3.8702   3.8923   3.9000
     3.9185   3.9344   3.9450   3.9628   3.9807   3.9833   3.9979   4.0099
     4.0104   4.0303   4.0307   4.0359   4.0641   4.0664   4.0781   4.0812
     4.0964   4.1010   4.1054   4.1109   4.1301   4.1322   4.1376   4.1501
     4.1530   4.1693   4.1827   4.1986   4.2055   4.2085   4.2086   4.2286
     4.2300   4.2347   4.2506   4.2668   4.2698   4.2919   4.2934   4.2939
     4.2995   4.3026   4.3216   4.3229   4.3297   4.3331   4.3542   4.3573
     4.3623   4.3764   4.3880   4.3935   4.3965   4.4040   4.4321   4.4340
     4.4594   4.4649   4.4953   4.5038   4.5241   4.5338   4.5409   4.5423
     4.5557   4.5560   4.5829   4.6098   4.6191   4.6272   4.6622   4.6655
     4.6926   4.7013   4.7085   4.7145   4.7244   4.7276   4.7484   4.7639
     4.7676   4.7862   4.7894   4.7961   4.8184   4.8404   4.8488   4.9105
     4.9331   4.9425   4.9569   4.9628   4.9677   4.9680   5.0072   5.0133
     5.0190   5.0347   5.0591   5.0699   5.0713   5.0773   5.0942   5.1000
     5.1253   5.1290   5.1432   5.1485   5.1551   5.1831   5.1843   5.1946
     5.2264   5.2300   5.2607   5.2721   5.2808   5.2971   5.3216   5.3280
     5.3348   5.3479   5.3563   5.3609   5.3721   5.4003   5.4067   5.4192
     5.4377   5.4563   5.4637   5.4969   5.4987   5.5194   5.5267   5.5333
     5.5432   5.5434   5.5797   5.5871   5.5939   5.6078   5.6223   5.6302
     5.6355   5.6756   5.6794   5.6938   5.6973   5.7012   5.7258   5.7412
     5.7562   5.7629   5.7680   5.7926   5.7962   5.8068   5.8185   5.8261
     5.8728   5.8763   5.9010   5.9080   5.9080   5.9377   5.9526   5.9543
     5.9553   5.9587   5.9701   5.9804   5.9885   6.0004   6.0126   6.0186
     6.0289   6.0315   6.0322   6.0629   6.0722   6.0883   6.1030   6.1039
     6.1206   6.1214   6.1346   6.1471   6.1471   6.1480   6.1559   6.1643
     6.1672   6.1747   6.1800   6.1841   6.1870   6.2099   6.2190   6.2198
     6.2324   6.2325   6.2427   6.2477   6.2558   6.2598   6.2773   6.2810
     6.2889   6.2922   6.3210   6.3261   6.3378   6.3423   6.3576   6.3809
     6.3856   6.3877   6.3911   6.4199   6.4233   6.4346   6.4422   6.4528
     6.4812   6.4813   6.4922   6.5105   6.5113   6.5150   6.5186   6.5315
     6.5397   6.5405   6.5489   6.5496   6.5573   6.5638   6.5810   6.6147
     6.6645   6.6673   6.7072   6.7672   6.8181   6.8229   6.8328   6.8354
     6.8426   6.9227   6.9712   7.0300   7.0386   7.0593   7.1255   7.1763
     7.1871   7.2757   7.3457   7.3470   7.5599   7.5887   7.6639   7.6745
     7.8643   8.0189   8.2465   8.2604   8.3482   8.3645   8.8022   9.0042
     9.0300   9.0950   9.1235   9.2665   9.3014   9.3083   9.4091   9.4699
     9.4729   9.6380   9.6382   9.7734   9.7988   9.8459   9.8569   9.9280
    10.0797  10.1338  10.2083  10.3041  10.3669  10.3903  10.5122  10.5469
    10.5824  10.7551  10.8616  10.8782  11.0970  11.1786  11.2673  11.2952
    11.3707  11.5077  11.6901  11.7290  11.7681  11.9383  12.0032  12.0777
    12.1100  12.1582  12.2227  12.2483  12.2801  12.3199  12.3317  12.4727
    12.4820  12.5627  12.7155  12.7314  12.8588  12.8728  13.0058  13.0126
    13.0743  13.1330  13.2139  13.2602  13.2668  13.3371  13.3808  13.5359
    13.5406  13.5620  13.6859  13.7468  13.8518  13.8815  13.9067  14.0046
    14.1482  14.1995  14.2606

          k = 0.2083 0.0481 0.0000 ( 55067 PWs)   bands (ev):

    -0.5875  -0.2496   0.2428   0.7501   0.8164   1.0260   1.1688   1.3393
     1.4025   1.4233   1.6067   1.6471   1.6938   1.7255   1.7556   1.7633
     1.7976   1.8384   1.8537   1.8898   1.9311   1.9418   1.9646   1.9731
     1.9924   2.0436   2.0855   2.0887   2.1379   2.1387   2.1459   2.1986
     2.2168   2.2309   2.2416   2.2513   2.2893   2.3434   2.3437   2.3478
     2.3554   2.4010   2.4164   2.4224   2.4284   2.4307   2.4890   2.4986
     2.5323   2.5394   2.5684   2.5826   2.5924   2.6073   2.6192   2.6600
     2.6792   2.7041   2.7049   2.7087   2.7165   2.7552   2.7572   2.7676
     2.7828   2.7855   2.8081   2.8792   2.8833   2.9155   2.9313   2.9434
     2.9596   2.9870   3.0503   3.0698   3.0935   3.1030   3.1074   3.1522
     3.1565   3.1761   3.1813   3.1870   3.1941   3.2304   3.2477   3.2800
     3.2932   3.2947   3.3107   3.3116   3.3160   3.3305   3.3375   3.3517
     3.3737   3.4120   3.4162   3.4311   3.4488   3.4649   3.4696   3.4767
     3.4911   3.4920   3.5190   3.5397   3.5548   3.5577   3.5792   3.6008
     3.6149   3.6471   3.6488   3.6569   3.6665   3.6681   3.6801   3.6855
     3.7575   3.7582   3.7859   3.7886   3.7903   3.8183   3.8405   3.8485
     3.8517   3.8586   3.8605   3.8664   3.8919   3.8929   3.8982   3.9279
     3.9448   3.9539   3.9570   3.9643   3.9691   3.9693   3.9700   3.9963
     3.9987   4.0049   4.0122   4.0287   4.0298   4.0464   4.0478   4.0502
     4.0589   4.0633   4.0753   4.1147   4.1247   4.1369   4.1393   4.1420
     4.1498   4.1502   4.1615   4.1704   4.1722   4.1759   4.1832   4.1910
     4.2007   4.2147   4.2265   4.2488   4.2537   4.2596   4.2613   4.2635
     4.2694   4.2950   4.2951   4.3093   4.3242   4.3761   4.3852   4.3899
     4.4033   4.4081   4.4103   4.4217   4.4415   4.4615   4.4711   4.4815
     4.4940   4.5044   4.5298   4.5305   4.5500   4.5552   4.5662   4.5980
     4.6149   4.6167   4.6622   4.7195   4.7271   4.7580   4.7699   4.7720
     4.8219   4.8305   4.8354   4.8474   4.8532   4.8557   4.8766   4.8891
     4.9085   4.9104   4.9117   4.9237   4.9407   4.9467   4.9553   4.9776
     4.9898   5.0122   5.0317   5.0458   5.0544   5.0721   5.0845   5.0853
     5.0945   5.1316   5.1429   5.1878   5.1885   5.1886   5.1886   5.2128
     5.2191   5.2231   5.2292   5.2446   5.2592   5.2679   5.2688   5.2771
     5.2797   5.3155   5.3250   5.3352   5.3523   5.3590   5.3752   5.3822
     5.3883   5.3932   5.3938   5.4188   5.4294   5.4615   5.4624   5.4683
     5.4784   5.5076   5.5136   5.5265   5.5391   5.5472   5.5518   5.5564
     5.5629   5.5941   5.5965   5.6260   5.6286   5.6531   5.6633   5.6823
     5.6871   5.7289   5.7401   5.7503   5.7672   5.7944   5.7961   5.8124
     5.8128   5.8176   5.8329   5.8597   5.8616   5.8776   5.9059   5.9144
     5.9377   5.9453   5.9625   5.9747   5.9896   5.9985   6.0241   6.0404
     6.0561   6.0636   6.0644   6.0698   6.0911   6.0981   6.1079   6.1094
     6.1110   6.1271   6.1361   6.1462   6.1471   6.1587   6.1601   6.1637
     6.1640   6.1800   6.1802   6.1900   6.1920   6.2092   6.2251   6.2326
     6.2355   6.2355   6.2406   6.2419   6.2545   6.2636   6.2721   6.2763
     6.2770   6.2771   6.2855   6.2858   6.2897   6.2964   6.3091   6.3133
     6.3260   6.3471   6.3516   6.3629   6.3793   6.3853   6.3913   6.4203
     6.4223   6.4351   6.4380   6.4408   6.4452   6.4515   6.4542   6.4688
     6.4964   6.5028   6.5070   6.5573   6.5627   6.5719   6.5771   6.5936
     6.6187   6.6398   6.6573   6.6612   6.6678   6.6761   6.6850   6.6941
     6.7146   6.7161   6.7982   6.8758   6.9864   7.0633   7.0976   7.1044
     7.2569   7.2669   7.4134   7.5112   7.5949   7.6023   7.7092   7.7918
     7.9025   7.9881   8.0955   8.2152   8.2775   8.3050   8.5498   8.7358
     8.8266   8.9293   9.0115   9.0721   9.0888   9.1527   9.3478   9.4148
     9.6530   9.6603   9.7166   9.7776   9.8379   9.8853   9.9723  10.0377
    10.0482  10.2263  10.2621  10.4361  10.4454  10.5774  10.6215  10.9049
    11.0044  11.0661  11.1810  11.2102  11.2912  11.3185  11.3680  11.4649
    11.5088  11.5139  11.5187  11.5922  11.6759  11.7287  11.7802  11.8405
    11.9628  12.0043  12.0149  12.0997  12.1629  12.3032  12.3516  12.3762
    12.5155  12.5738  12.6339  12.7545  12.8506  12.9213  12.9642  13.0674
    13.2235  13.4246  13.4744  13.5126  13.5703  13.6159  13.7457  13.7556
    13.7672  13.8013  13.8408  14.0121  14.1034  14.1306  14.1527  14.1878
    14.2949  14.3917  14.5317

          k = 0.2083 0.1443 0.0000 ( 55049 PWs)   bands (ev):

    -0.4894  -0.1536   0.3358   0.3412   0.6460   0.9070   1.0890   1.4283
     1.5163   1.5724   1.6072   1.7306   1.7333   1.7477   1.7898   1.8180
     1.8302   1.8359   1.8509   1.9450   1.9505   1.9605   2.0294   2.0370
     2.0433   2.0716   2.0771   2.1041   2.1152   2.1317   2.1957   2.2216
     2.2403   2.2549   2.2722   2.2913   2.2934   2.3040   2.3509   2.3573
     2.3716   2.3869   2.3923   2.4375   2.4381   2.4433   2.4563   2.4620
     2.4653   2.4713   2.4842   2.4883   2.5106   2.5703   2.5776   2.5878
     2.5891   2.6117   2.6370   2.6880   2.6883   2.7008   2.7052   2.7075
     2.7508   2.7848   2.7883   2.7938   2.8161   2.8262   2.8356   2.8617
     2.8766   2.9015   2.9878   2.9983   3.0069   3.0535   3.0791   3.1069
     3.1083   3.1253   3.1701   3.1794   3.1813   3.1957   3.2441   3.2608
     3.2731   3.3154   3.3237   3.3392   3.3704   3.3872   3.3901   3.4221
     3.4276   3.4379   3.4383   3.4498   3.4610   3.4900   3.4902   3.4951
     3.5051   3.5388   3.5631   3.5669   3.5836   3.5912   3.6179   3.6260
     3.6492   3.6889   3.6930   3.7071   3.7238   3.7277   3.7314   3.7374
     3.7494   3.7596   3.8016   3.8058   3.8133   3.8390   3.8414   3.8595
     3.8768   3.8802   3.8833   3.8988   3.9150   3.9213   3.9235   3.9397
     3.9496   3.9561   3.9668   3.9786   3.9908   3.9985   4.0172   4.0245
     4.0264   4.0274   4.0383   4.0681   4.0735   4.0767   4.0782   4.1155
     4.1164   4.1335   4.1449   4.1598   4.1680   4.1795   4.1829   4.1891
     4.2001   4.2093   4.2100   4.2233   4.2266   4.2401   4.2413   4.2496
     4.2595   4.2871   4.2891   4.3070   4.3072   4.3126   4.3152   4.3250
     4.3393   4.3455   4.3482   4.3527   4.3604   4.3605   4.3721   4.3827
     4.4133   4.4163   4.4575   4.4811   4.4829   4.4866   4.4892   4.5158
     4.5209   4.5239   4.5397   4.5412   4.5442   4.5651   4.5824   4.5835
     4.5969   4.6383   4.6417   4.6596   4.6825   4.7015   4.7479   4.7533
     4.7587   4.7636   4.7903   4.8231   4.8289   4.8363   4.8425   4.8457
     4.8582   4.8765   4.9194   4.9279   4.9330   4.9426   4.9527   4.9565
     4.9754   4.9812   4.9947   5.0153   5.0262   5.0288   5.0594   5.0809
     5.1062   5.1087   5.1347   5.1544   5.1556   5.1653   5.1767   5.1770
     5.1928   5.1965   5.1965   5.2143   5.2198   5.2273   5.2399   5.2583
     5.2972   5.3036   5.3065   5.3091   5.3368   5.3414   5.3471   5.3536
     5.3611   5.3814   5.3902   5.3970   5.4363   5.4524   5.4539   5.4716
     5.4786   5.4920   5.4941   5.5232   5.5272   5.5344   5.5448   5.5526
     5.5724   5.5767   5.6118   5.6201   5.6210   5.6414   5.6435   5.6563
     5.6726   5.6827   5.7299   5.7535   5.7753   5.8015   5.8168   5.8220
     5.8480   5.8596   5.8669   5.8841   5.9185   5.9233   5.9375   5.9442
     5.9497   5.9626   5.9701   5.9862   5.9950   6.0085   6.0155   6.0166
     6.0293   6.0393   6.0423   6.0519   6.0609   6.0682   6.0729   6.0951
     6.0954   6.1002   6.1194   6.1253   6.1341   6.1424   6.1467   6.1596
     6.1619   6.1688   6.1719   6.1738   6.1868   6.1935   6.2004   6.2113
     6.2193   6.2241   6.2258   6.2358   6.2482   6.2593   6.2649   6.2708
     6.2717   6.2724   6.2783   6.3099   6.3124   6.3179   6.3221   6.3400
     6.3510   6.3512   6.3663   6.3729   6.3839   6.3870   6.3900   6.4027
     6.4137   6.4164   6.4313   6.4318   6.4406   6.4435   6.4467   6.4525
     6.4758   6.4829   6.4961   6.5008   6.5089   6.5482   6.5580   6.5938
     6.6019   6.6099   6.6147   6.6632   6.6741   6.6776   6.6831   6.7113
     6.7151   6.7186   6.7233   6.7550   6.8586   6.8593   6.9700   7.0816
     7.1300   7.2085   7.2890   7.5873   7.6103   7.7384   7.7916   7.9544
     8.0388   8.0672   8.1679   8.2636   8.3151   8.3635   8.3997   8.4578
     8.6851   8.7158   8.9061   8.9642   9.0905   9.2937   9.3241   9.4100
     9.4722   9.7443   9.7508   9.8461   9.8477   9.9371  10.0410  10.1394
    10.2085  10.3990  10.4852  10.4983  10.5359  10.5950  10.7893  10.7904
    10.9617  10.9863  11.0082  11.0412  11.0646  11.1419  11.2130  11.3909
    11.4139  11.4748  11.6671  11.6774  11.7684  11.7864  11.8455  11.8818
    11.9905  12.1724  12.2140  12.2572  12.3000  12.4105  12.4302  12.4400
    12.6152  12.6157  12.6410  12.9277  12.9964  13.0109  13.1153  13.1582
    13.1746  13.4025  13.5266  13.5755  13.5949  13.6175  13.6317  13.7317
    13.7709  13.9137  13.9240  14.1859  14.2072  14.2846  14.2856  14.2933
    14.2968  14.4466  14.4926

          k = 0.2083 0.2406 0.0000 ( 54996 PWs)   bands (ev):

    -0.2963  -0.0151   0.0346   0.3064   0.5171   0.7753   1.0820   1.3265
     1.5900   1.5993   1.6534   1.7082   1.7753   1.8301   1.8310   1.8822
     1.8926   1.9456   1.9848   1.9973   2.0089   2.0219   2.0383   2.0863
     2.0947   2.0984   2.1130   2.1327   2.1388   2.1597   2.1783   2.1825
     2.2188   2.2191   2.2314   2.2430   2.2451   2.2592   2.3038   2.3195
     2.3319   2.3376   2.3560   2.3701   2.3710   2.4264   2.4394   2.4483
     2.4678   2.4701   2.4759   2.5039   2.5197   2.5291   2.5475   2.5603
     2.5779   2.5928   2.6340   2.6434   2.6454   2.6575   2.6896   2.7050
     2.7104   2.7329   2.7542   2.7749   2.7849   2.7928   2.8136   2.8175
     2.8492   2.8589   2.8852   2.8935   2.9119   2.9372   2.9592   2.9842
     3.0681   3.1050   3.1393   3.1620   3.1924   3.2154   3.2254   3.2885
     3.2907   3.3108   3.3116   3.3179   3.3499   3.3551   3.3840   3.4263
     3.4329   3.4413   3.4639   3.4826   3.5068   3.5072   3.5135   3.5365
     3.5512   3.5737   3.5747   3.5852   3.5922   3.6107   3.6519   3.6647
     3.6649   3.6707   3.6858   3.7031   3.7540   3.7573   3.7580   3.7726
     3.7961   3.8100   3.8140   3.8367   3.8529   3.8614   3.8868   3.9018
     3.9080   3.9102   3.9156   3.9262   3.9370   3.9377   3.9548   3.9724
     4.0156   4.0160   4.0236   4.0256   4.0271   4.0465   4.0552   4.0640
     4.0787   4.0829   4.0923   4.1072   4.1176   4.1386   4.1448   4.1557
     4.1595   4.1816   4.1874   4.1999   4.2015   4.2162   4.2209   4.2248
     4.2363   4.2406   4.2452   4.2576   4.2647   4.2647   4.2693   4.2794
     4.2896   4.2941   4.3101   4.3113   4.3176   4.3242   4.3352   4.3439
     4.3811   4.3901   4.3909   4.4116   4.4132   4.4229   4.4286   4.4388
     4.4443   4.4655   4.4752   4.4815   4.4816   4.5153   4.5483   4.5768
     4.5777   4.5789   4.5828   4.5904   4.5915   4.6013   4.6122   4.6307
     4.6542   4.6545   4.6568   4.6664   4.6745   4.6793   4.6990   4.7092
     4.7209   4.7319   4.7556   4.7613   4.8105   4.8106   4.8123   4.8239
     4.8572   4.8659   4.8813   4.9028   4.9057   4.9127   4.9424   4.9487
     4.9543   4.9778   4.9814   4.9958   5.0015   5.0041   5.0113   5.0270
     5.0295   5.0472   5.0558   5.0797   5.0993   5.1038   5.1108   5.1192
     5.1486   5.1785   5.1880   5.1899   5.1992   5.2401   5.2448   5.2505
     5.2746   5.2746   5.3005   5.3232   5.3608   5.3612   5.3797   5.3901
     5.4086   5.4135   5.4329   5.4398   5.4477   5.4520   5.4581   5.4669
     5.4759   5.4820   5.4930   5.5124   5.5325   5.5351   5.5462   5.5659
     5.5809   5.5893   5.6005   5.6085   5.6187   5.6461   5.6599   5.6702
     5.6704   5.6851   5.6972   5.7384   5.7524   5.7552   5.7627   5.7696
     5.7867   5.8025   5.8086   5.8306   5.8419   5.8442   5.8698   5.8960
     5.8990   5.9032   5.9062   5.9219   5.9413   5.9527   5.9698   5.9793
     5.9922   5.9939   6.0058   6.0071   6.0207   6.0248   6.0396   6.0465
     6.0626   6.0647   6.0751   6.0791   6.0815   6.1019   6.1391   6.1400
     6.1530   6.1705   6.1772   6.1782   6.1854   6.1950   6.1950   6.2033
     6.2041   6.2153   6.2204   6.2223   6.2300   6.2344   6.2438   6.2493
     6.2651   6.2652   6.2978   6.3062   6.3108   6.3309   6.3443   6.3646
     6.3737   6.3789   6.3866   6.3914   6.4053   6.4064   6.4100   6.4173
     6.4305   6.4355   6.4447   6.4545   6.4592   6.4615   6.4799   6.4929
     6.5125   6.5159   6.5164   6.5307   6.5588   6.5634   6.5648   6.5893
     6.6244   6.6391   6.6477   6.6610   6.6866   6.7003   6.7036   6.7101
     6.7129   6.7900   6.8082   6.8303   6.9008   6.9038   7.0368   7.0447
     7.0564   7.1589   7.3105   7.3471   7.3801   7.5687   7.5832   7.6135
     7.6835   7.8962   8.1150   8.2719   8.3435   8.4010   8.5024   8.6556
     8.9270   9.0182   9.0663   9.1223   9.2274   9.4169   9.5026   9.5992
     9.6256   9.6731   9.8454   9.8883   9.8994   9.9212   9.9252  10.0437
    10.1182  10.1417  10.2489  10.4139  10.4616  10.5331  10.5512  10.5841
    10.6277  10.7317  10.8576  11.0368  11.0518  11.0607  11.2436  11.3895
    11.4985  11.5491  11.5826  11.6985  11.8924  11.9459  12.0835  12.0924
    12.1921  12.2855  12.3445  12.3901  12.4530  12.5621  12.5977  12.6903
    12.8316  12.9814  13.0403  13.1130  13.1482  13.2451  13.2769  13.2783
    13.3728  13.3735  13.4833  13.5421  13.6267  13.6399  13.6616  13.7673
    13.8338  13.9446  14.0390  14.0745  14.0912  14.1922  14.2433  14.3198
    14.3744  14.3830  14.4085

          k = 0.2917 0.0481 0.0000 ( 55058 PWs)   bands (ev):

    -0.3679  -0.0349   0.4511   0.9342   1.0199   1.1954   1.3533   1.4556
     1.5408   1.5603   1.5753   1.6084   1.6541   1.7428   1.8361   1.8517
     1.8582   1.9269   1.9356   1.9443   1.9686   1.9865   2.0084   2.0150
     2.0593   2.1028   2.1098   2.1686   2.1985   2.2044   2.2247   2.2446
     2.2804   2.3081   2.3261   2.3319   2.3550   2.3930   2.4285   2.4666
     2.4879   2.5137   2.5203   2.5477   2.5523   2.5643   2.5681   2.5777
     2.5964   2.6211   2.6684   2.6825   2.6990   2.7237   2.7341   2.7667
     2.7748   2.7842   2.7884   2.7957   2.8148   2.8213   2.8467   2.8532
     2.8572   2.8982   2.9033   2.9216   2.9351   2.9424   2.9599   3.0440
     3.0564   3.0638   3.0663   3.0851   3.0968   3.1118   3.1120   3.1291
     3.1539   3.1657   3.1789   3.1882   3.2022   3.2065   3.2336   3.2418
     3.2559   3.2568   3.2802   3.3022   3.3072   3.3250   3.3273   3.3483
     3.3493   3.3797   3.3820   3.3984   3.4155   3.4273   3.4352   3.4415
     3.4532   3.4656   3.4692   3.4791   3.4858   3.5125   3.5136   3.5213
     3.5388   3.5939   3.6199   3.6446   3.6486   3.6673   3.6800   3.6888
     3.6941   3.6944   3.7211   3.7454   3.7657   3.7760   3.8069   3.8188
     3.8233   3.8333   3.8503   3.8526   3.8564   3.8647   3.8653   3.8941
     3.8953   3.8963   3.9090   3.9156   3.9292   3.9348   3.9771   3.9804
     3.9859   3.9985   4.0122   4.0210   4.0242   4.0329   4.0457   4.0516
     4.0604   4.0635   4.0672   4.0903   4.1008   4.1009   4.1094   4.1256
     4.1348   4.1567   4.1585   4.1650   4.1717   4.1817   4.1878   4.1921
     4.1936   4.1967   4.2039   4.2579   4.2606   4.2626   4.2645   4.2651
     4.2758   4.2824   4.3029   4.3265   4.3275   4.3626   4.3718   4.3823
     4.3899   4.4017   4.4111   4.4377   4.4435   4.4577   4.4625   4.4689
     4.4876   4.4957   4.5345   4.5439   4.5612   4.5685   4.5956   4.6094
     4.6159   4.6186   4.6226   4.6694   4.6720   4.6960   4.7176   4.7258
     4.7480   4.7572   4.7629   4.7729   4.7917   4.8210   4.8221   4.8453
     4.8497   4.9044   4.9076   4.9123   4.9279   4.9421   4.9475   4.9634
     4.9719   5.0019   5.0083   5.0090   5.0173   5.0351   5.0356   5.0538
     5.0755   5.0856   5.0935   5.1157   5.1189   5.1205   5.1406   5.1599
     5.1796   5.1815   5.1827   5.1833   5.2002   5.2018   5.2229   5.2243
     5.2262   5.2467   5.2858   5.2985   5.3052   5.3308   5.3322   5.3363
     5.3383   5.3493   5.3569   5.3581   5.3744   5.3915   5.4317   5.4378
     5.4455   5.4535   5.4951   5.5071   5.5216   5.5243   5.5276   5.5355
     5.5502   5.5521   5.5779   5.5815   5.6044   5.6306   5.6351   5.6492
     5.6826   5.6987   5.7127   5.7243   5.7258   5.7352   5.7370   5.7837
     5.7903   5.8209   5.8221   5.8334   5.8409   5.8498   5.8657   5.8764
     5.8925   5.8938   5.9151   5.9183   5.9196   5.9231   5.9365   5.9429
     5.9472   5.9646   5.9673   5.9798   5.9957   5.9962   6.0046   6.0221
     6.0347   6.0444   6.0471   6.0553   6.0595   6.0740   6.0749   6.0938
     6.1052   6.1067   6.1112   6.1119   6.1374   6.1512   6.1531   6.1575
     6.1661   6.1704   6.1782   6.1844   6.1869   6.1948   6.2044   6.2081
     6.2192   6.2250   6.2287   6.2329   6.2373   6.2452   6.2463   6.2552
     6.2553   6.2668   6.2717   6.2811   6.2854   6.2906   6.2971   6.3105
     6.3183   6.3240   6.3326   6.3398   6.3533   6.3594   6.3782   6.4022
     6.4111   6.4341   6.4551   6.4575   6.4640   6.4768   6.4869   6.5110
     6.5187   6.5383   6.5430   6.5513   6.5611   6.5732   6.6053   6.6076
     6.6166   6.6332   6.6518   6.7524   6.8336   6.8434   6.8497   7.0250
     7.0433   7.0694   7.1384   7.3219   7.3902   7.4502   7.5048   7.5592
     7.6751   7.7618   7.7770   8.1870   8.3176   8.3275   8.4070   8.5057
     8.5514   8.9505   9.1543   9.1957   9.2039   9.2745   9.3500   9.4316
     9.5609   9.5966   9.8072  10.0619  10.0887  10.1079  10.1143  10.2360
    10.3164  10.4055  10.4275  10.5699  10.6039  10.6502  10.7539  10.8439
    10.9612  10.9785  10.9989  11.2135  11.2963  11.3199  11.4308  11.5299
    11.5650  11.6562  11.7079  11.7442  11.8667  11.8930  12.1669  12.2111
    12.2806  12.3412  12.3797  12.5297  12.6837  12.6966  12.7821  12.7869
    12.7925  12.9220  12.9952  13.0182  13.0290  13.1707  13.1764  13.2655
    13.3817  13.5638  13.6173  13.6375  13.7549  13.7610  13.8095  13.8821
    13.9288  13.9923  14.0036  14.0993  14.1098  14.2531  14.3140  14.3751
    14.4929  14.5556  14.6907

          k = 0.2917 0.1443 0.0000 ( 55039 PWs)   bands (ev):

    -0.2732   0.0570   0.5326   0.5388   0.8262   1.1032   1.2518   1.4454
     1.5141   1.6203   1.6548   1.7085   1.7532   1.7534   1.8920   1.9078
     1.9131   1.9173   1.9602   1.9790   2.0072   2.0177   2.0273   2.0828
     2.1293   2.1383   2.1448   2.1528   2.1893   2.2043   2.2327   2.3010
     2.3165   2.3280   2.3475   2.3573   2.4182   2.4341   2.4353   2.4510
     2.4609   2.4811   2.5195   2.5225   2.5239   2.5383   2.5407   2.5661
     2.5686   2.5991   2.6022   2.6043   2.6063   2.6252   2.6464   2.6513
     2.6556   2.6854   2.7144   2.7794   2.7948   2.8137   2.8171   2.8213
     2.8252   2.8306   2.8465   2.8670   2.8946   2.9314   2.9346   2.9368
     2.9514   2.9852   3.0257   3.0586   3.0861   3.0897   3.1081   3.1119
     3.1388   3.1637   3.1648   3.2038   3.2289   3.2319   3.2649   3.2685
     3.2905   3.2936   3.3121   3.3384   3.3444   3.3451   3.3705   3.3712
     3.3849   3.4125   3.4266   3.4393   3.4528   3.4559   3.4617   3.4670
     3.5057   3.5107   3.5120   3.5393   3.5479   3.5591   3.5597   3.6049
     3.6276   3.6360   3.6485   3.6588   3.6624   3.6768   3.6833   3.6882
     3.6976   3.7306   3.7372   3.7387   3.7485   3.7526   3.7720   3.7993
     3.8001   3.8402   3.8452   3.8816   3.8833   3.8994   3.9064   3.9115
     3.9281   3.9424   3.9460   3.9834   3.9838   3.9840   3.9866   4.0155
     4.0209   4.0318   4.0504   4.0680   4.0773   4.0803   4.0855   4.1023
     4.1092   4.1227   4.1304   4.1406   4.1424   4.1570   4.1588   4.1627
     4.1958   4.1967   4.2083   4.2176   4.2241   4.2324   4.2449   4.2477
     4.2614   4.2739   4.2765   4.2783   4.2795   4.2984   4.2990   4.3070
     4.3113   4.3150   4.3202   4.3331   4.3445   4.3605   4.3654   4.3745
     4.3776   4.3886   4.3963   4.4473   4.4484   4.4567   4.4712   4.4713
     4.4755   4.5009   4.5324   4.5349   4.5450   4.5578   4.5774   4.5884
     4.6040   4.6110   4.6216   4.6455   4.6811   4.7054   4.7222   4.7246
     4.7456   4.7482   4.7704   4.7768   4.7789   4.7881   4.7892   4.8284
     4.8643   4.8658   4.8761   4.8846   4.8861   4.8899   4.9351   4.9386
     4.9499   4.9599   4.9609   4.9694   4.9780   4.9819   4.9933   5.0012
     5.0205   5.0228   5.0339   5.0605   5.0702   5.0777   5.1159   5.1208
     5.1381   5.1407   5.1418   5.1764   5.1801   5.1883   5.1922   5.2045
     5.2350   5.2364   5.2411   5.2655   5.2784   5.2808   5.2840   5.3083
     5.3147   5.3302   5.3405   5.3509   5.3679   5.3713   5.3907   5.4079
     5.4249   5.4410   5.4763   5.4764   5.4769   5.4834   5.5004   5.5012
     5.5014   5.5482   5.5622   5.5693   5.6042   5.6069   5.6086   5.6378
     5.6396   5.6444   5.6461   5.6785   5.7057   5.7066   5.7250   5.7644
     5.7705   5.7819   5.7931   5.8028   5.8060   5.8061   5.8251   5.8301
     5.8498   5.8640   5.8655   5.8679   5.8726   5.8742   5.8747   5.9028
     5.9343   5.9469   5.9603   5.9628   5.9906   6.0006   6.0152   6.0247
     6.0373   6.0388   6.0401   6.0552   6.0700   6.0712   6.0795   6.0844
     6.0974   6.0977   6.1138   6.1142   6.1175   6.1278   6.1390   6.1583
     6.1586   6.1674   6.1731   6.1742   6.1874   6.2028   6.2083   6.2199
     6.2305   6.2332   6.2468   6.2486   6.2507   6.2603   6.2657   6.2728
     6.2730   6.2772   6.2790   6.2850   6.2878   6.2932   6.3086   6.3212
     6.3269   6.3431   6.3595   6.3653   6.3890   6.3937   6.3985   6.4058
     6.4064   6.4321   6.4492   6.4511   6.4820   6.4914   6.5060   6.5127
     6.5223   6.5433   6.5534   6.5659   6.5660   6.5898   6.6062   6.6200
     6.6325   6.6381   6.6434   6.6859   6.6893   6.7298   6.9245   6.9248
     7.0479   7.0654   7.2741   7.4939   7.5484   7.7307   7.7763   7.8008
     7.9452   7.9758   8.1508   8.2575   8.2735   8.2895   8.3698   8.5300
     8.5464   8.5881   8.6314   8.8934   9.1128   9.1191   9.2909   9.3416
     9.6030   9.6246   9.7716   9.8273   9.8986  10.0791  10.1321  10.2286
    10.2449  10.2738  10.5217  10.6217  10.7042  10.7222  10.7304  10.8690
    11.0463  11.1561  11.2131  11.2897  11.2952  11.3936  11.4103  11.4934
    11.5979  11.6754  11.8268  11.8561  11.8663  11.9338  11.9899  12.2275
    12.2621  12.3668  12.3864  12.4261  12.4969  12.6324  12.8160  12.8850
    12.9059  12.9942  13.0534  13.0566  13.1421  13.3113  13.3801  13.4297
    13.4738  13.5617  13.6659  13.7754  13.7854  13.8453  13.9321  13.9660
    13.9697  14.0723  14.1193  14.2740  14.2918  14.3065  14.3938  14.4482
    14.4598  14.6411  14.6501

          k = 0.2917 0.2406 0.0000 ( 55053 PWs)   bands (ev):

    -0.0866   0.1858   0.2374   0.4985   0.7099   0.9540   1.2644   1.4409
     1.4600   1.4903   1.6634   1.6925   1.7736   1.8937   1.9118   1.9302
     1.9509   1.9845   2.0384   2.0467   2.1078   2.1107   2.1115   2.1414
     2.1657   2.1858   2.1977   2.2007   2.2151   2.2357   2.2487   2.2931
     2.3162   2.3181   2.3263   2.3328   2.3628   2.3654   2.3756   2.3856
     2.4307   2.4338   2.4620   2.4671   2.4852   2.5089   2.5097   2.5372
     2.5513   2.5628   2.5868   2.5917   2.5992   2.6208   2.6454   2.6637
     2.6784   2.6825   2.6916   2.7284   2.7309   2.7644   2.7659   2.7660
     2.7811   2.8203   2.8367   2.8679   2.8721   2.8938   2.8949   2.9182
     2.9233   2.9538   2.9795   2.9893   2.9984   3.0498   3.0778   3.0835
     3.1143   3.1697   3.1773   3.1929   3.1967   3.2461   3.2507   3.2641
     3.2821   3.2914   3.3062   3.3229   3.3322   3.3421   3.3686   3.4056
     3.4119   3.4541   3.4595   3.4750   3.4862   3.4863   3.4880   3.5107
     3.5186   3.5224   3.5507   3.5661   3.5823   3.5853   3.5860   3.5953
     3.6084   3.6240   3.6441   3.6613   3.6743   3.6952   3.6991   3.7273
     3.7444   3.7467   3.7602   3.8141   3.8196   3.8360   3.8494   3.8576
     3.8904   3.8915   3.8922   3.8975   3.9201   3.9215   3.9386   3.9648
     3.9709   3.9944   3.9944   4.0214   4.0352   4.0369   4.0445   4.0531
     4.0547   4.0662   4.0703   4.0853   4.0916   4.1068   4.1084   4.1252
     4.1355   4.1357   4.1385   4.1724   4.1753   4.1855   4.1952   4.2118
     4.2250   4.2319   4.2337   4.2467   4.2529   4.2619   4.2644   4.2795
     4.2897   4.2897   4.3137   4.3138   4.3321   4.3392   4.3408   4.3499
     4.3582   4.3693   4.3780   4.3813   4.3985   4.4065   4.4095   4.4364
     4.4400   4.4469   4.4493   4.4591   4.4716   4.5035   4.5197   4.5280
     4.5361   4.5543   4.5638   4.5806   4.5842   4.5866   4.5951   4.6079
     4.6095   4.6278   4.6327   4.6436   4.6456   4.6644   4.6741   4.6841
     4.6880   4.7018   4.7020   4.7119   4.7154   4.7319   4.7355   4.7528
     4.7757   4.7843   4.7950   4.8115   4.8157   4.8460   4.8614   4.8701
     4.8792   4.8835   4.8952   4.9264   4.9505   4.9568   4.9600   4.9688
     4.9824   5.0013   5.0078   5.0128   5.0314   5.0385   5.0689   5.0744
     5.0995   5.1175   5.1237   5.1378   5.1399   5.1422   5.1920   5.1934
     5.2005   5.2364   5.2511   5.2562   5.2674   5.2733   5.2742   5.3282
     5.3488   5.3517   5.3590   5.3631   5.3689   5.3695   5.3938   5.4212
     5.4300   5.4353   5.4443   5.4746   5.4757   5.4834   5.4862   5.4968
     5.5076   5.5276   5.5319   5.5351   5.5619   5.5666   5.5752   5.5824
     5.5880   5.6163   5.6235   5.6323   5.6587   5.6668   5.6729   5.6741
     5.6833   5.6846   5.7018   5.7039   5.7510   5.7619   5.7682   5.7792
     5.7852   5.7939   5.8158   5.8218   5.8262   5.8336   5.8400   5.8487
     5.8631   5.8634   5.8666   5.8957   5.9248   5.9261   5.9514   5.9725
     5.9808   5.9827   6.0351   6.0405   6.0440   6.0447   6.0593   6.0743
     6.0784   6.0988   6.1183   6.1249   6.1335   6.1458   6.1503   6.1532
     6.1662   6.1744   6.1850   6.1851   6.1852   6.2037   6.2163   6.2165
     6.2170   6.2223   6.2272   6.2343   6.2433   6.2501   6.2574   6.2657
     6.2751   6.2812   6.2943   6.2992   6.3218   6.3317   6.3324   6.3392
     6.3451   6.3680   6.3790   6.3867   6.4064   6.4065   6.4119   6.4447
     6.4485   6.4572   6.4768   6.4815   6.5001   6.5279   6.5280   6.5320
     6.5520   6.5560   6.5596   6.5711   6.5798   6.6251   6.6371   6.6463
     6.6611   6.6883   6.7072   6.7859   6.9632   7.0525   7.0718   7.0724
     7.1244   7.1976   7.2156   7.4952   7.6056   7.6510   7.6810   7.8154
     7.8625   7.8906   7.9145   8.2540   8.4280   8.4911   8.5653   8.5742
     8.5797   8.7092   8.7554   8.9832   9.0192   9.1775   9.3042   9.3184
     9.4020   9.4512   9.6120   9.7536   9.8261   9.9024   9.9147  10.1068
    10.2201  10.2960  10.4217  10.4931  10.5535  10.7647  10.8097  10.8739
    11.0009  11.0828  11.1013  11.1538  11.2807  11.2939  11.2965  11.4191
    11.5453  11.7826  11.8597  12.0280  12.1211  12.1903  12.3048  12.3495
    12.3904  12.4784  12.4983  12.6506  12.6591  12.7772  12.8747  12.9365
    12.9770  13.0762  13.1662  13.1679  13.2626  13.3217  13.4158  13.5244
    13.5391  13.7076  13.7485  13.7665  13.8268  13.9554  13.9641  14.0431
    14.1424  14.2055  14.2494  14.3750  14.3759  14.4867  14.5301  14.5539
    14.5902  14.6823  14.7066

          k = 0.3750 0.0481 0.0000 ( 55067 PWs)   bands (ev):

    -0.0846   0.2400   0.7140   1.0432   1.1487   1.2720   1.2944   1.3873
     1.5597   1.5862   1.6525   1.7201   1.7421   1.7842   1.7875   1.8189
     1.9844   2.0166   2.0457   2.0639   2.0744   2.1065   2.1175   2.1585
     2.1598   2.1607   2.1813   2.2210   2.2484   2.2685   2.2787   2.3424
     2.3865   2.4082   2.4493   2.4521   2.4582   2.4967   2.5077   2.5234
     2.5874   2.5949   2.5971   2.5987   2.6203   2.6394   2.6680   2.6956
     2.7211   2.7223   2.7239   2.7324   2.7397   2.7627   2.7890   2.7938
     2.8032   2.8652   2.8653   2.8673   2.8858   2.8997   2.9061   2.9230
     2.9331   2.9373   2.9516   2.9523   2.9917   2.9947   3.0088   3.0233
     3.0252   3.0442   3.0848   3.1099   3.1114   3.1270   3.1437   3.1681
     3.1692   3.1791   3.1889   3.1942   3.2295   3.2307   3.2328   3.2436
     3.2545   3.2595   3.2838   3.2873   3.2959   3.3046   3.3240   3.3245
     3.3290   3.3481   3.3630   3.3796   3.3834   3.3984   3.4114   3.4145
     3.4517   3.4520   3.4593   3.4711   3.4805   3.4893   3.5049   3.5224
     3.5335   3.5487   3.5777   3.5964   3.5998   3.6110   3.6514   3.6613
     3.6688   3.6839   3.6933   3.7052   3.7102   3.7162   3.7228   3.7752
     3.8099   3.8315   3.8376   3.8416   3.8471   3.8619   3.8622   3.8636
     3.8813   3.8854   3.9089   3.9338   3.9346   3.9347   3.9533   3.9580
     3.9743   3.9758   3.9930   4.0021   4.0117   4.0333   4.0340   4.0459
     4.0521   4.0544   4.0563   4.0808   4.0814   4.0962   4.0973   4.1063
     4.1105   4.1259   4.1322   4.1486   4.1558   4.1753   4.1861   4.1978
     4.2022   4.2037   4.2120   4.2203   4.2585   4.2722   4.2909   4.2964
     4.2967   4.2984   4.3330   4.3408   4.3421   4.3455   4.3578   4.3788
     4.3870   4.4072   4.4216   4.4275   4.4400   4.4497   4.4510   4.4529
     4.4900   4.4994   4.5131   4.5339   4.5553   4.5610   4.5976   4.6016
     4.6045   4.6208   4.6296   4.6364   4.6468   4.6525   4.6568   4.6795
     4.6796   4.6878   4.7162   4.7168   4.7304   4.7569   4.7614   4.7935
     4.7960   4.8001   4.8322   4.8684   4.8997   4.9235   4.9255   4.9365
     4.9394   4.9534   4.9556   4.9594   4.9631   4.9785   5.0019   5.0069
     5.0097   5.0269   5.0296   5.0610   5.0615   5.0624   5.0759   5.0781
     5.1055   5.1086   5.1360   5.1588   5.1607   5.1699   5.1785   5.1986
     5.2096   5.2168   5.2258   5.2320   5.2499   5.2579   5.2592   5.2645
     5.2734   5.2991   5.3292   5.3344   5.3386   5.3529   5.3734   5.3776
     5.3968   5.4210   5.4284   5.4286   5.4431   5.4740   5.5020   5.5062
     5.5147   5.5326   5.5438   5.5579   5.5664   5.5818   5.5876   5.5883
     5.5884   5.6050   5.6052   5.6464   5.6578   5.6592   5.6681   5.6830
     5.7009   5.7051   5.7091   5.7091   5.7298   5.7328   5.7332   5.7562
     5.7639   5.7912   5.8047   5.8067   5.8365   5.8485   5.8937   5.8944
     5.9056   5.9092   5.9235   5.9291   5.9371   5.9463   5.9535   5.9658
     5.9713   5.9811   5.9937   5.9955   5.9984   6.0274   6.0447   6.0454
     6.0553   6.0589   6.0651   6.0671   6.0850   6.0910   6.1019   6.1022
     6.1100   6.1131   6.1187   6.1403   6.1454   6.1465   6.1497   6.1585
     6.1734   6.1742   6.1876   6.1892   6.1927   6.1986   6.2010   6.2043
     6.2058   6.2156   6.2269   6.2300   6.2435   6.2472   6.2515   6.2741
     6.2819   6.2969   6.3021   6.3196   6.3198   6.3242   6.3369   6.3377
     6.3414   6.3525   6.3832   6.3984   6.4279   6.4375   6.4443   6.4444
     6.4675   6.4763   6.4813   6.4966   6.5003   6.5419   6.5517   6.5624
     6.5973   6.6063   6.6177   6.6195   6.6486   6.7402   6.7660   6.9106
     7.0281   7.0356   7.0979   7.1077   7.1109   7.2480   7.3597   7.4693
     7.7231   7.7555   7.7938   7.9448   8.0550   8.2669   8.5444   8.5653
     8.6216   8.7745   8.8096   9.2501   9.2767   9.4288   9.5098   9.5953
     9.6424   9.6723   9.8008   9.9117  10.1949  10.2084  10.3043  10.3818
    10.4572  10.5649  10.5683  10.5810  10.6072  10.6579  10.6672  10.9100
    10.9662  11.0597  11.1384  11.2196  11.2813  11.3055  11.4245  11.5624
    11.5724  11.5769  11.8826  12.0165  12.0315  12.1813  12.2921  12.3728
    12.4710  12.5364  12.6540  12.7612  12.7968  12.9504  13.0297  13.0913
    13.1358  13.1713  13.1760  13.2720  13.4006  13.4150  13.5096  13.5855
    13.5985  13.7313  13.8514  13.8722  13.8968  13.9949  14.0613  14.1349
    14.1416  14.1712  14.2963  14.3054  14.3871  14.4292  14.5282  14.5539
    14.5584  14.6079  14.8963

          k = 0.3750 0.1443 0.0000 ( 55097 PWs)   bands (ev):

     0.0044   0.3250   0.7649   0.7925   1.0402   1.0802   1.3257   1.3421
     1.4110   1.4343   1.6408   1.6658   1.8476   1.8862   1.8929   1.9332
     1.9967   2.0400   2.0445   2.0490   2.1097   2.1636   2.1800   2.1981
     2.2131   2.2222   2.2322   2.2387   2.2536   2.3215   2.3722   2.3757
     2.3834   2.3942   2.4171   2.4660   2.4678   2.4960   2.5112   2.5289
     2.5442   2.5600   2.5709   2.5932   2.6086   2.6277   2.6333   2.6571
     2.6865   2.6872   2.6938   2.6985   2.7138   2.7331   2.7414   2.7476
     2.7636   2.8055   2.8088   2.8104   2.8461   2.8545   2.8814   2.9026
     2.9241   2.9284   2.9395   2.9424   2.9486   2.9533   2.9571   2.9807
     3.0350   3.0614   3.0715   3.1121   3.1220   3.1265   3.1646   3.1754
     3.1934   3.2017   3.2081   3.2243   3.2349   3.2639   3.2742   3.2754
     3.2780   3.2909   3.2916   3.3120   3.3143   3.3201   3.3233   3.3269
     3.3510   3.3760   3.3939   3.3961   3.4242   3.4607   3.4610   3.4657
     3.4970   3.5009   3.5142   3.5233   3.5331   3.5376   3.5479   3.5583
     3.5745   3.5791   3.5924   3.5949   3.6157   3.6270   3.6323   3.6425
     3.6456   3.7011   3.7018   3.7046   3.7156   3.7411   3.7502   3.7746
     3.8005   3.8070   3.8460   3.8546   3.8780   3.8986   3.8990   3.9004
     3.9095   3.9142   3.9196   3.9453   3.9649   3.9696   3.9866   3.9930
     3.9930   4.0006   4.0213   4.0256   4.0471   4.0535   4.0611   4.0654
     4.0696   4.0746   4.1134   4.1229   4.1280   4.1353   4.1464   4.1533
[...]
     4.9106   4.9275   4.9353   4.9413   4.9564   4.9620   4.9724   4.9730
     4.9837   4.9989   5.0192   5.0299   5.0377   5.0465   5.0566   5.0632
     5.0696   5.0882   5.1354   5.1385   5.1419   5.1520   5.1604   5.1817
     5.1929   5.2010   5.2160   5.2245   5.2317   5.2382   5.2386   5.2497
     5.2622   5.2650   5.2689   5.2855   5.2873   5.2994   5.3199   5.3220
     5.3522   5.3539   5.3790   5.3898   5.4063   5.4140   5.4168   5.4189
     5.4241   5.4505   5.4523   5.4535   5.4784   5.4896   5.5110   5.5351
     5.5428   5.5472   5.5558   5.5768   5.5768   5.6002   5.6226   5.6272
     5.6569   5.6592   5.6606   5.6750   5.6760   5.6971   5.6998   5.7093
     5.7105   5.7247   5.7288   5.7472   5.7608   5.8051   5.8077   5.8214
     5.8242   5.8547   5.8651   5.8669   5.8825   5.8890   5.8964   5.9166
     5.9396   5.9406   5.9427   5.9575   5.9592   5.9807   5.9825   5.9955
     5.9987   6.0111   6.0283   6.0516   6.0529   6.0659   6.0668   6.0704
     6.0726   6.0859   6.0971   6.1010   6.1084   6.1223   6.1293   6.1426
     6.1520   6.1545   6.1623   6.1676   6.1698   6.1783   6.1961   6.2138
     6.2142   6.2209   6.2212   6.2349   6.2390   6.2597   6.2742   6.2767
     6.2826   6.2839   6.2945   6.3192   6.3229   6.3286   6.3459   6.3473
     6.3745   6.3752   6.3796   6.3880   6.3962   6.4044   6.4056   6.4092
     6.4346   6.4633   6.4700   6.4868   6.5194   6.5290   6.5607   6.5808
     6.5845   6.5917   6.5940   6.6048   6.6689   6.7172   6.7855   6.7994
     6.8275   6.8683   6.9979   7.0630   7.1345   7.2656   7.3380   7.3797
     7.6220   7.6911   7.8919   8.0545   8.0607   8.0795   8.4061   8.4152
     8.7454   8.9185   8.9280   8.9783   9.2564   9.2890   9.5703   9.6860
     9.8606   9.8719   9.8789   9.9776  10.0901  10.2000  10.2071  10.3143
    10.3642  10.4599  10.6742  10.7058  10.7284  10.7897  10.8917  10.9388
    10.9854  11.0332  11.1307  11.2359  11.2425  11.2823  11.5722  11.6063
    11.7216  11.7566  11.8985  11.9043  12.2160  12.2255  12.3719  12.4558
    12.5405  12.6017  12.7297  12.7433  12.8885  13.0226  13.0519  13.0808
    13.1578  13.2150  13.3231  13.3388  13.4664  13.4683  13.5777  13.8357
    13.8429  13.8835  13.8891  13.9142  14.1444  14.1703  14.2823  14.4031
    14.4102  14.5049  14.5547  14.6909  14.7362  14.8480  14.8647  14.9130
    14.9231  14.9389  15.0716

          k = 0.4583 0.1443 0.0000 ( 55107 PWs)   bands (ev):

     0.3333   0.6380   0.6988   0.9788   1.0132   1.0804   1.2412   1.2640
     1.3800   1.4720   1.6002   1.6100   1.7608   1.8465   1.9944   2.0412
     2.0651   2.0787   2.0843   2.1755   2.2537   2.2539   2.2715   2.2722
     2.2974   2.3061   2.3272   2.3591   2.3683   2.4028   2.4253   2.4336
     2.4504   2.4614   2.4715   2.4807   2.4998   2.5021   2.5440   2.5455
     2.5733   2.5949   2.5974   2.6220   2.6594   2.6747   2.6772   2.6811
     2.6945   2.7227   2.7599   2.7748   2.7762   2.7802   2.7974   2.8074
     2.8115   2.8326   2.8378   2.8538   2.8596   2.8697   2.8874   2.9300
     2.9323   2.9383   2.9463   2.9790   2.9961   3.0143   3.0356   3.0692
     3.0796   3.0824   3.0844   3.1258   3.1369   3.1604   3.1783   3.1825
     3.2007   3.2246   3.2393   3.2422   3.2676   3.2740   3.2741   3.2746
     3.3072   3.3116   3.3144   3.3282   3.3344   3.3392   3.3603   3.3674
     3.3840   3.3846   3.4120   3.4218   3.4238   3.4349   3.4608   3.4617
     3.4700   3.4764   3.4793   3.4960   3.5088   3.5316   3.5336   3.5473
     3.5512   3.5557   3.5685   3.5878   3.6221   3.6230   3.6273   3.6413
     3.6611   3.6750   3.6915   3.6998   3.7078   3.7385   3.7512   3.7627
     3.7708   3.7795   3.8157   3.8160   3.8362   3.8388   3.8536   3.8623
     3.8701   3.8763   3.8974   3.9149   3.9443   3.9453   3.9551   3.9591
     3.9937   3.9947   3.9988   4.0082   4.0248   4.0266   4.0548   4.0723
     4.0728   4.0820   4.1114   4.1158   4.1352   4.1402   4.1455   4.1463
     4.1517   4.1608   4.1687   4.1762   4.1854   4.1982   4.2031   4.2063
     4.2131   4.2164   4.2229   4.2261   4.2290   4.2327   4.2458   4.2464
     4.2669   4.2764   4.2777   4.2880   4.2985   4.2987   4.3106   4.3179
     4.3305   4.3689   4.3701   4.3805   4.3805   4.3887   4.4332   4.4538
     4.4643   4.4660   4.4719   4.4882   4.4946   4.5212   4.5234   4.5756
     4.5985   4.6014   4.6137   4.6409   4.6536   4.6546   4.6600   4.6771
     4.6839   4.6984   4.7063   4.7097   4.7194   4.7419   4.7590   4.7697
     4.7757   4.8297   4.8451   4.8509   4.8596   4.8666   4.8750   4.8758
     4.8995   4.9086   4.9257   4.9276   4.9486   4.9633   4.9656   4.9865
     4.9893   4.9925   5.0061   5.0081   5.0293   5.0355   5.0419   5.0659
     5.0720   5.0993   5.1151   5.1158   5.1304   5.1464   5.1483   5.1489
     5.1584   5.1942   5.1954   5.2024   5.2107   5.2237   5.2265   5.2341
     5.2419   5.2458   5.2524   5.2610   5.2834   5.2913   5.3125   5.3205
     5.3244   5.3284   5.3304   5.3402   5.3554   5.3615   5.3868   5.4083
     5.4122   5.4193   5.4259   5.4270   5.4287   5.4376   5.4491   5.4772
     5.4823   5.4959   5.5098   5.5211   5.5356   5.5458   5.5524   5.5849
     5.5929   5.5985   5.6083   5.6217   5.6318   5.6325   5.6366   5.6381
     5.6650   5.6743   5.6912   5.6937   5.6943   5.7056   5.7216   5.7356
     5.7451   5.7456   5.7682   5.7722   5.7737   5.7857   5.7968   5.8191
     5.8219   5.8357   5.8690   5.8719   5.9139   5.9257   5.9280   5.9437
     5.9464   5.9477   5.9556   5.9750   5.9822   5.9822   6.0103   6.0164
     6.0247   6.0276   6.0327   6.0715   6.0919   6.1038   6.1081   6.1130
     6.1345   6.1454   6.1597   6.1622   6.1764   6.1903   6.2049   6.2051
     6.2052   6.2081   6.2163   6.2564   6.2601   6.2751   6.2817   6.2832
     6.2865   6.2970   6.2972   6.3196   6.3426   6.3543   6.3648   6.3789
     6.3891   6.3946   6.4002   6.4471   6.4537   6.4601   6.4614   6.4891
     6.4933   6.4984   6.5168   6.5402   6.5432   6.5994   6.6069   6.6190
     6.6298   6.6425   6.7425   6.8479   6.8542   6.9993   7.0642   7.0846
     7.1194   7.2421   7.3240   7.3245   7.3415   7.4301   7.5135   7.5805
     7.7311   7.8221   8.0152   8.1140   8.2147   8.2561   8.4529   8.5499
     8.7955   8.8001   8.9361   9.0778   9.0921   9.1199   9.1200   9.2793
     9.4350   9.4446   9.4481   9.6588   9.8411   9.9825  10.0122  10.1377
    10.1754  10.4072  10.4494  10.4915  10.6180  10.7169  10.9127  11.1102
    11.2247  11.3089  11.3203  11.4991  11.5990  11.6359  11.7603  11.7672
    11.8740  12.0288  12.0816  12.1876  12.2589  12.3867  12.4923  12.5807
    12.6147  12.7648  12.7787  12.9111  12.9157  13.0216  13.1304  13.1928
    13.2288  13.2739  13.3037  13.4210  13.4526  13.6131  13.6770  13.7424
    13.7511  13.8655  14.0068  14.0385  14.1162  14.1444  14.2000  14.2534
    14.3436  14.4555  14.4672  14.6098  14.6253  14.6717  14.7228  14.7739
    14.8793  14.8926  15.0176

          k = 0.4583 0.2406 0.0000 ( 55107 PWs)   bands (ev):

     0.4901   0.7196   0.7834   0.8245   0.9952   1.0080   1.0910   1.2051
     1.2570   1.3854   1.4638   1.5912   1.6939   1.8291   1.8813   1.9455
     2.1292   2.2126   2.2303   2.2343   2.2907   2.3020   2.3255   2.3295
     2.3450   2.3581   2.3766   2.3992   2.4064   2.4123   2.4232   2.4264
     2.4283   2.4604   2.4839   2.4858   2.5136   2.5377   2.5648   2.5758
     2.5801   2.5881   2.5983   2.5986   2.6208   2.6352   2.6615   2.6943
     2.7150   2.7167   2.7268   2.7431   2.7451   2.7602   2.7758   2.7810
     2.8067   2.8148   2.8345   2.8372   2.8556   2.8596   2.8610   2.9118
     2.9197   2.9374   2.9569   3.0113   3.0221   3.0566   3.0677   3.0805
     3.0828   3.0852   3.1110   3.1308   3.1430   3.1803   3.1966   3.1989
     3.2090   3.2124   3.2233   3.2250   3.2283   3.2629   3.2674   3.3167
     3.3245   3.3292   3.3476   3.3607   3.3733   3.3733   3.3759   3.4097
     3.4139   3.4348   3.4389   3.4390   3.4644   3.4733   3.4749   3.4861
     3.4963   3.5063   3.5151   3.5187   3.5382   3.5390   3.5580   3.5710
     3.5765   3.5921   3.5983   3.6017   3.6211   3.6245   3.6253   3.6260
     3.6621   3.6934   3.6962   3.7152   3.7190   3.7210   3.7305   3.7344
     3.7459   3.7770   3.7904   3.8108   3.8253   3.8494   3.8557   3.8751
     3.9044   3.9165   3.9226   3.9246   3.9308   3.9785   3.9924   4.0057
     4.0126   4.0283   4.0391   4.0393   4.0686   4.0858   4.0913   4.0969
     4.0979   4.1142   4.1203   4.1297   4.1351   4.1425   4.1625   4.1639
     4.1649   4.1711   4.1783   4.1812   4.1972   4.1988   4.1995   4.1998
     4.2102   4.2141   4.2187   4.2309   4.2317   4.2318   4.2374   4.2389
     4.2503   4.2580   4.2679   4.2784   4.2827   4.3153   4.3280   4.3447
     4.3561   4.3626   4.3720   4.3895   4.4066   4.4267   4.4296   4.4344
     4.4626   4.4631   4.4842   4.4911   4.5224   4.5407   4.5500   4.5660
     4.5770   4.5908   4.6078   4.6397   4.6476   4.6522   4.6669   4.6845
     4.6860   4.6992   4.7037   4.7446   4.7457   4.7649   4.7790   4.7974
     4.8059   4.8114   4.8235   4.8282   4.8301   4.8586   4.8723   4.8739
     4.8800   4.8860   4.8884   4.8946   4.9185   4.9464   4.9535   4.9648
     4.9813   4.9913   4.9931   5.0147   5.0229   5.0342   5.0424   5.0587
     5.0607   5.0734   5.0784   5.0865   5.1212   5.1335   5.1353   5.1487
     5.1513   5.1554   5.1611   5.1619   5.1854   5.1902   5.1909   5.2044
     5.2071   5.2221   5.2285   5.2321   5.2392   5.2425   5.2463   5.2586
     5.2646   5.2835   5.2887   5.3120   5.3161   5.3274   5.3311   5.3446
     5.3556   5.3762   5.3809   5.3951   5.3952   5.3987   5.4131   5.4318
     5.4342   5.4461   5.4562   5.4576   5.4593   5.4743   5.4745   5.4950
     5.5089   5.5186   5.5321   5.5359   5.5554   5.5643   5.5679   5.5771
     5.5937   5.6046   5.6217   5.6450   5.6452   5.6472   5.6581   5.6788
     5.6857   5.7122   5.7298   5.7429   5.7493   5.7627   5.7692   5.7724
     5.7764   5.7980   5.8071   5.8105   5.8326   5.8581   5.8598   5.8763
     5.9021   5.9106   5.9464   5.9469   5.9580   5.9631   5.9686   5.9772
     6.0528   6.0563   6.0730   6.0733   6.0889   6.1071   6.1076   6.1082
     6.1228   6.1392   6.1401   6.1501   6.1574   6.1653   6.1819   6.1858
     6.2138   6.2189   6.2334   6.2468   6.2976   6.3310   6.3375   6.3454
     6.3622   6.3651   6.3764   6.3833   6.3851   6.3866   6.3943   6.4092
     6.4163   6.4484   6.4527   6.4780   6.4780   6.4784   6.5015   6.5173
     6.5364   6.5466   6.5481   6.5652   6.6058   6.6346   6.6370   6.6372
     6.6817   6.6916   6.6970   6.7463   6.9340   7.0626   7.1468   7.2575
     7.5253   7.5293   7.5832   7.6862   7.8060   7.8155   7.8493   7.8703
     8.0012   8.1133   8.1925   8.2136   8.2980   8.3494   8.4064   8.4240
     8.5149   8.6486   8.6488   8.6701   8.7882   8.9665   9.0637   9.1464
     9.2312   9.2985   9.3146   9.4963   9.5762   9.6973   9.8241  10.0040
    10.2244  10.2643  10.2982  10.3937  10.5520  10.5645  10.6809  10.9349
    11.0861  11.2965  11.4509  11.5487  11.6655  11.8309  11.9312  12.0007
    12.0633  12.2787  12.3150  12.3562  12.7415  12.7791  12.8733  12.8934
    12.9051  13.0224  13.0937  13.1006  13.1795  13.2273  13.2491  13.2593
    13.2949  13.3789  13.4404  13.4716  13.5040  13.5235  13.7598  13.7659
    13.8165  13.9333  13.9337  13.9393  14.0264  14.0489  14.0698  14.1274
    14.1621  14.2310  14.2431  14.3227  14.3738  14.4013  14.4230  14.5571
    14.6070  14.7698  14.8821

     the Fermi energy is     8.2691 ev

!    total energy              =   -7346.35669867 Ry
     estimated scf accuracy    <       0.00000050 Ry
     smearing contrib. (-TS)   =       0.09479113 Ry
     internal energy E=F+TS    =   -7346.45148979 Ry

     The total energy is F=E-TS. E is the sum of the following terms:
     one-electron contribution =  -33899.11136767 Ry
     hartree contribution      =   17698.23547579 Ry
     xc contribution           =   -3551.00761057 Ry
     ewald contribution        =   12405.43201266 Ry

     convergence has been achieved in  21 iterations

     negative rho (up, down):  1.957E+00 0.000E+00

     Forces acting on atoms (cartesian axes, Ry/au):

     atom    1 type  1   force =     0.00000000   -0.00165260    0.02685790
     atom    2 type  1   force =     0.00000000   -0.00165205    0.02685788
     atom    3 type  1   force =     0.00000000   -0.00165245    0.02685803
     atom    4 type  1   force =     0.00000000   -0.00165203    0.02685753
     atom    5 type  1   force =     0.00000005    0.00334404   -0.01643298
     atom    6 type  1   force =    -0.00000005    0.00334404   -0.01643298
     atom    7 type  1   force =     0.00000009    0.00334396   -0.01643308
     atom    8 type  1   force =    -0.00000009    0.00334396   -0.01643308
     atom    9 type  1   force =     0.00000000   -0.00158874   -0.00951232
     atom   10 type  1   force =     0.00000000   -0.00158852   -0.00951236
     atom   11 type  1   force =     0.00000000   -0.00158863   -0.00951234
     atom   12 type  1   force =     0.00000000   -0.00158839   -0.00951247
     atom   13 type  1   force =     0.00000000    0.00056047   -0.00376172
     atom   14 type  1   force =     0.00000000    0.00056044   -0.00376175
     atom   15 type  1   force =    -0.00000006   -0.00053445    0.00465475
     atom   16 type  1   force =     0.00000006   -0.00053445    0.00465475
     atom   17 type  1   force =     0.00000000    0.00056047   -0.00376173
     atom   18 type  1   force =     0.00000000    0.00056046   -0.00376166
     atom   19 type  1   force =     0.00000001   -0.00053447    0.00465467
     atom   20 type  1   force =    -0.00000001   -0.00053447    0.00465467
     atom   21 type  1   force =     0.00000000    0.00028625   -0.00070169
     atom   22 type  1   force =     0.00000000    0.00028630   -0.00070163
     atom   23 type  1   force =     0.00000003   -0.00045289   -0.00047140
     atom   24 type  1   force =     0.00000000    0.00028627   -0.00070180
     atom   25 type  1   force =     0.00000003   -0.00045296   -0.00047143
     atom   26 type  1   force =    -0.00000003   -0.00045289   -0.00047140
     atom   27 type  1   force =    -0.00000003   -0.00045296   -0.00047143
     atom   28 type  1   force =     0.00000000    0.00028625   -0.00070169
     atom   29 type  1   force =    -0.00000004   -0.00018684    0.00042947
     atom   30 type  1   force =     0.00000000    0.00019770   -0.00054659
     atom   31 type  1   force =    -0.00000003   -0.00018675    0.00042945
     atom   32 type  1   force =     0.00000003   -0.00018675    0.00042945
     atom   33 type  1   force =     0.00000004   -0.00018684    0.00042947
     atom   34 type  1   force =     0.00000000    0.00019770   -0.00054650
     atom   35 type  1   force =     0.00000000    0.00019793   -0.00054666
     atom   36 type  1   force =     0.00000000    0.00019792   -0.00054661
     atom   37 type  1   force =     0.00000000    0.00018865   -0.00043240
     atom   38 type  1   force =     0.00000000    0.00018856   -0.00043246
     atom   39 type  1   force =    -0.00000004   -0.00019724    0.00054566
     atom   40 type  1   force =     0.00000004   -0.00019724    0.00054566
     atom   41 type  1   force =     0.00000004   -0.00019725    0.00054554
     atom   42 type  1   force =     0.00000000    0.00018850   -0.00043238
     atom   43 type  1   force =     0.00000000    0.00018848   -0.00043238
     atom   44 type  1   force =    -0.00000004   -0.00019725    0.00054554
     atom   45 type  1   force =     0.00000000    0.00045371    0.00047608
     atom   46 type  1   force =     0.00000000    0.00045366    0.00047601
     atom   47 type  1   force =     0.00000000    0.00045361    0.00047605
     atom   48 type  1   force =     0.00000000    0.00045357    0.00047605
     atom   49 type  1   force =     0.00000002   -0.00028558    0.00070414
     atom   50 type  1   force =    -0.00000002   -0.00028558    0.00070414
     atom   51 type  1   force =    -0.00000002   -0.00028559    0.00070407
     atom   52 type  1   force =     0.00000002   -0.00028559    0.00070407
     atom   53 type  1   force =     0.00000000    0.00053567   -0.00465966
     atom   54 type  1   force =     0.00000001   -0.00055990    0.00375421
     atom   55 type  1   force =    -0.00000009   -0.00055985    0.00375413
     atom   56 type  1   force =    -0.00000001   -0.00055990    0.00375421
     atom   57 type  1   force =     0.00000009   -0.00055985    0.00375413
     atom   58 type  1   force =     0.00000000    0.00053531   -0.00465963
     atom   59 type  1   force =     0.00000000    0.00053558   -0.00465969
     atom   60 type  1   force =     0.00000000    0.00053528   -0.00465956
     atom   61 type  1   force =     0.00000001    0.00158674    0.00951101
     atom   62 type  1   force =     0.00000000   -0.00334241    0.01643099
     atom   63 type  1   force =     0.00000000   -0.00334260    0.01643085
     atom   64 type  1   force =     0.00000000   -0.00334250    0.01643081
     atom   65 type  1   force =     0.00000000   -0.00334234    0.01643106
     atom   66 type  1   force =    -0.00000003    0.00158665    0.00951074
     atom   67 type  1   force =    -0.00000001    0.00158674    0.00951101
     atom   68 type  1   force =     0.00000003    0.00158665    0.00951074
     atom   69 type  1   force =    -0.00000007    0.00164736   -0.02684493
     atom   70 type  1   force =     0.00000016    0.00164726   -0.02684479
     atom   71 type  1   force =     0.00000007    0.00164736   -0.02684493
     atom   72 type  1   force =    -0.00000016    0.00164726   -0.02684479

     Total force =     0.095326     Total SCF correction =     0.004293
 
     init_run     :     11.27s CPU      6.31s WALL (       1 calls)
     electrons    :    849.14s CPU    452.25s WALL (       1 calls)
     forces       :      4.31s CPU      2.24s WALL (       1 calls)

     Called by init_run:
     wfcinit      :     10.09s CPU      5.29s WALL (       1 calls)
     potinit      :      0.29s CPU      0.18s WALL (       1 calls)
     hinit0       :      0.30s CPU      0.22s WALL (       1 calls)

     Called by electrons:
     c_bands      :    758.79s CPU    403.39s WALL (      22 calls)
     sum_band     :     84.81s CPU     45.60s WALL (      22 calls)
     v_of_rho     :      2.63s CPU      1.55s WALL (      22 calls)
     newd         :      1.35s CPU      0.88s WALL (      22 calls)
     mix_rho      :      0.88s CPU      0.46s WALL (      22 calls)

     Called by c_bands:
     init_us_2    :      2.44s CPU      1.31s WALL (     230 calls)
     cegterg      :    703.32s CPU    362.78s WALL (     110 calls)

     Called by *egterg:
     cdiaghg      :    156.85s CPU     80.25s WALL (     693 calls)
     h_psi        :    356.47s CPU    184.55s WALL (     703 calls)
     s_psi        :     24.11s CPU     12.16s WALL (     703 calls)
     g_psi        :      0.49s CPU      0.24s WALL (     588 calls)

     Called by h_psi:
     h_psi:calbec :     35.95s CPU     18.82s WALL (     703 calls)
     vloc_psi     :    294.04s CPU    152.24s WALL (     703 calls)
     add_vuspsi   :     25.23s CPU     12.76s WALL (     703 calls)

     General routines
     calbec       :     53.70s CPU     28.08s WALL (     833 calls)
     fft          :      2.69s CPU      1.52s WALL (     296 calls)
     ffts         :      0.19s CPU      0.11s WALL (      44 calls)
     fftw         :    345.95s CPU    179.66s WALL (  284576 calls)
     interpolate  :      0.20s CPU      0.12s WALL (      22 calls)
 
     Parallel routines
     fft_scatt_xy :     12.04s CPU      6.76s WALL (  284916 calls)
     fft_scatt_yz :    266.84s CPU    138.95s WALL (  284916 calls)
 
     PWSCF        :  14m25.43s CPU   7m42.53s WALL

 
   This run was terminated on:   2:55:47   8Sep2021            

=------------------------------------------------------------------------------=
   JOB DONE.
=------------------------------------------------------------------------------=
