
     Program PWSCF v.6.6 starts on 24Sep2021 at 22:15:49 

     This program is part of the open-source Quantum ESPRESSO suite
     for quantum simulation of materials; please cite
         "P. Giannozzi et al., J. Phys.:Condens. Matter 21 395502 (2009);
         "P. Giannozzi et al., J. Phys.:Condens. Matter 29 465901 (2017);
          URL http://www.quantum-espresso.org", 
     in publications or presentations arising from this work. More details at
     http://www.quantum-espresso.org/quote

     Parallel version (MPI & OpenMP), running on      96 processor cores
     Number of MPI processes:                12
     Threads/MPI process:                     8

     MPI processes distributed on     2 nodes
     R & G space division:  proc/nbgrp/npool/nimage =      12
     Fft bands division:     nmany     =       1
     Reading input from ../inputs/input_ausurf_288

     Current dimensions of program PWSCF are:
     Max number of different atomic species (ntypx) = 10
     Max number of k-points (npk) =  40000
     Max angular momentum in pseudopotentials (lmaxx) =  3

     Subspace diagonalization in iterative solution of the eigenvalue problem:
     one sub-group per band group will be used
     ELPA distributed-memory algorithm (size of sub-group:  3*  3 procs)

     Found symmetry operation: I + (  0.2500  0.0000  0.0000)
     This is a supercell, fractional translations are disabled
 
     Parallelization info
     --------------------
     sticks:   dense  smooth     PW     G-vecs:    dense   smooth      PW
     Min        1998     912    237               475056   146844   19619
     Max        1999     913    238               475065   146853   19626
     Sum       23985   10951   2855              5700737  1762171  235477
 

     Title: 
      Ausurf                                                                    


     bravais-lattice index     =            8
     lattice parameter (alat)  =      22.2988  a.u.
     unit-cell volume          =   51555.9485 (a.u.)^3
     number of atoms/cell      =          288
     number of atomic types    =            1
     number of electrons       =      3168.00
     number of Kohn-Sham states=         1901
     kinetic-energy cutoff     =      40.0000  Ry
     charge density cutoff     =     350.0000  Ry
     convergence threshold     =      1.0E-06
     mixing beta               =       0.7000
     number of iterations used =            8  TF        mixing
     Exchange-correlation=  SLA  PW   PBE  PBE
                           (   1   4   3   4   0   0   0)

     celldm(1)=  22.298768  celldm(2)=   1.732051  celldm(3)=   2.684575
     celldm(4)=   0.000000  celldm(5)=   0.000000  celldm(6)=   0.000000

     crystal axes: (cart. coord. in units of alat)
               a(1) = (   1.000000   0.000000   0.000000 )  
               a(2) = (   0.000000   1.732051   0.000000 )  
               a(3) = (   0.000000   0.000000   2.684575 )  

     reciprocal axes: (cart. coord. in units 2 pi/alat)
               b(1) = (  1.000000  0.000000  0.000000 )  
               b(2) = (  0.000000  0.577350  0.000000 )  
               b(3) = (  0.000000  0.000000  0.372498 )  


     PseudoPot. # 1 for Au read from file:
     /marconi/home/userexternal/czeni000/dft_src/pseudo/Au.pbe-nd-van.UPF
     MD5 check sum: deb5c07af10777505a79e28f5b4b4115
     Pseudo is Ultrasoft + core correction, Zval = 11.0
     Generated by new atomic code, or converted to UPF format
     Using radial grid of  985 points,  3 beta functions with: 
                l(1) =   1
                l(2) =   2
                l(3) =   2
     Q(r) pseudized with  8 coefficients,  rinner =    1.100   1.100   1.100
                                                       1.100   1.100

     atomic species   valence    mass     pseudopotential
        Au            11.00   196.96000     Au( 1.00)

      2 Sym. Ops. (no inversion) found



   Cartesian axes

     site n.     atom                  positions (alat units)
         1           Au  tau(   1) = (   0.0000000   0.0000000   0.0000000  )
         2           Au  tau(   2) = (   0.2500000   0.0000000   0.0000000  )
         3           Au  tau(   3) = (   0.5000000   0.0000000   0.0000000  )
         4           Au  tau(   4) = (   0.0000000   0.4330127   0.0000000  )
         5           Au  tau(   5) = (   0.7500000   0.0000000   0.0000000  )
         6           Au  tau(   6) = (   0.2500000   0.4330127   0.0000000  )
         7           Au  tau(   7) = (   0.5000000   0.4330127   0.0000000  )
         8           Au  tau(   8) = (   0.0000000   0.8660254   0.0000000  )
         9           Au  tau(   9) = (   0.7500000   0.4330127   0.0000000  )
        10           Au  tau(  10) = (   0.2500000   0.8660254   0.0000000  )
        11           Au  tau(  11) = (   0.5000000   0.8660254   0.0000000  )
        12           Au  tau(  12) = (   0.0000000   1.2990381   0.0000000  )
        13           Au  tau(  13) = (   0.7500000   0.8660254   0.0000000  )
        14           Au  tau(  14) = (   0.2500000   1.2990381   0.0000000  )
        15           Au  tau(  15) = (   0.5000000   1.2990381   0.0000000  )
        16           Au  tau(  16) = (   0.7500000   1.2990381   0.0000000  )
        17           Au  tau(  17) = (   0.1250000   0.0721688   0.2041242  )
        18           Au  tau(  18) = (   0.3750000   0.0721688   0.2041242  )
        19           Au  tau(  19) = (   0.6250000   0.0721688   0.2041242  )
        20           Au  tau(  20) = (   0.1250000   0.5051815   0.2041242  )
        21           Au  tau(  21) = (   0.6250000   0.5051815   0.2041242  )
        22           Au  tau(  22) = (   0.8750000   0.0721688   0.2041242  )
        23           Au  tau(  23) = (   0.1250000   0.9381942   0.2041242  )
        24           Au  tau(  24) = (   0.3750000   0.5051815   0.2041242  )
        25           Au  tau(  25) = (   0.3750000   0.9381942   0.2041242  )
        26           Au  tau(  26) = (   0.8750000   0.5051815   0.2041242  )
        27           Au  tau(  27) = (   0.2500000   0.2886752   0.2041242  )
        28           Au  tau(  28) = (   0.2500000   0.7216878   0.2041242  )
        29           Au  tau(  29) = (   1.0000000   0.2886752   0.2041242  )
        30           Au  tau(  30) = (   0.3750000   1.3712069   0.2041242  )
        31           Au  tau(  31) = (   0.6250000   0.9381942   0.2041242  )
        32           Au  tau(  32) = (   0.5000000   0.2886752   0.2041242  )
        33           Au  tau(  33) = (   0.7500000   0.2886752   0.2041242  )
        34           Au  tau(  34) = (   0.1250000   1.3712069   0.2041242  )
        35           Au  tau(  35) = (   0.6250000   1.3712069   0.2041242  )
        36           Au  tau(  36) = (   0.8750000   0.9381942   0.2041242  )
        37           Au  tau(  37) = (   0.8750000   1.3712069   0.2041242  )
        38           Au  tau(  38) = (   0.5000000   0.7216878   0.2041242  )
        39           Au  tau(  39) = (   0.7500000   0.7216878   0.2041242  )
        40           Au  tau(  40) = (   0.7500000   1.1547005   0.2041242  )
        41           Au  tau(  41) = (   0.2500000   1.1547005   0.2041242  )
        42           Au  tau(  42) = (   0.5000000   1.1547005   0.2041242  )
        43           Au  tau(  43) = (   1.0000000   0.7216878   0.2041242  )
        44           Au  tau(  44) = (   0.2500000   1.5877132   0.2041242  )
        45           Au  tau(  45) = (   0.5000000   1.5877132   0.2041242  )
        46           Au  tau(  46) = (   1.0000000   1.1547005   0.2041242  )
        47           Au  tau(  47) = (   0.7500000   1.5877132   0.2041242  )
        48           Au  tau(  48) = (   1.0000000   1.5877132   0.2041242  )
        49           Au  tau(  49) = (   0.2500000   0.1443375   0.4082483  )
        50           Au  tau(  50) = (   0.6250000   0.3608439   0.4082483  )
        51           Au  tau(  51) = (   0.5000000   0.1443375   0.4082483  )
        52           Au  tau(  52) = (   0.7500000   0.1443375   0.4082483  )
        53           Au  tau(  53) = (   0.1250000   0.3608439   0.4082483  )
        54           Au  tau(  54) = (   0.3750000   0.3608439   0.4082483  )
        55           Au  tau(  55) = (   0.2500000   0.5773503   0.4082483  )
        56           Au  tau(  56) = (   0.5000000   0.5773503   0.4082483  )
        57           Au  tau(  57) = (   0.5000000   1.0103630   0.4082483  )
        58           Au  tau(  58) = (   0.5000000   1.4433757   0.4082483  )
        59           Au  tau(  59) = (   0.7500000   0.5773503   0.4082483  )
        60           Au  tau(  60) = (   1.0000000   0.1443375   0.4082483  )
        61           Au  tau(  61) = (   0.1250000   0.7938566   0.4082483  )
        62           Au  tau(  62) = (   0.1250000   1.2268693   0.4082483  )
        63           Au  tau(  63) = (   0.1250000   1.6598820   0.4082483  )
        64           Au  tau(  64) = (   0.3750000   0.7938566   0.4082483  )
        65           Au  tau(  65) = (   0.3750000   1.2268693   0.4082483  )
        66           Au  tau(  66) = (   0.8750000   0.3608439   0.4082483  )
        67           Au  tau(  67) = (   0.8750000   0.7938566   0.4082483  )
        68           Au  tau(  68) = (   0.8750000   1.2268693   0.4082483  )
        69           Au  tau(  69) = (   0.8750000   1.6598820   0.4082483  )
        70           Au  tau(  70) = (   0.2500000   1.0103630   0.4082483  )
        71           Au  tau(  71) = (   0.2500000   1.4433757   0.4082483  )
        72           Au  tau(  72) = (   0.7500000   1.0103630   0.4082483  )
        73           Au  tau(  73) = (   0.7500000   1.4433757   0.4082483  )
        74           Au  tau(  74) = (   1.0000000   0.5773503   0.4082483  )
        75           Au  tau(  75) = (   1.0000000   1.0103630   0.4082483  )
        76           Au  tau(  76) = (   1.0000000   1.4433757   0.4082483  )
        77           Au  tau(  77) = (   0.3750000   1.6598820   0.4082483  )
        78           Au  tau(  78) = (   0.6250000   0.7938566   0.4082483  )
        79           Au  tau(  79) = (   0.6250000   1.2268693   0.4082483  )
        80           Au  tau(  80) = (   0.6250000   1.6598820   0.4082483  )
        81           Au  tau(  81) = (   0.6250000   0.2165064   0.6123725  )
        82           Au  tau(  82) = (   0.0000000   0.0000000   0.6123725  )
        83           Au  tau(  83) = (   0.2500000   0.0000000   0.6123725  )
        84           Au  tau(  84) = (   0.5000000   0.0000000   0.6123725  )
        85           Au  tau(  85) = (   0.1250000   0.2165064   0.6123725  )
        86           Au  tau(  86) = (   0.0000000   0.8660254   0.6123725  )
        87           Au  tau(  87) = (   0.2500000   0.4330127   0.6123725  )
        88           Au  tau(  88) = (   0.2500000   0.8660254   0.6123725  )
        89           Au  tau(  89) = (   0.5000000   0.4330127   0.6123725  )
        90           Au  tau(  90) = (   0.7500000   0.4330127   0.6123725  )
        91           Au  tau(  91) = (   0.1250000   0.6495191   0.6123725  )
        92           Au  tau(  92) = (   0.3750000   0.2165064   0.6123725  )
        93           Au  tau(  93) = (   0.3750000   0.6495191   0.6123725  )
        94           Au  tau(  94) = (   0.6250000   0.6495191   0.6123725  )
        95           Au  tau(  95) = (   0.8750000   0.2165064   0.6123725  )
        96           Au  tau(  96) = (   0.0000000   0.4330127   0.6123725  )
        97           Au  tau(  97) = (   0.2500000   1.2990381   0.6123725  )
        98           Au  tau(  98) = (   0.5000000   1.2990381   0.6123725  )
        99           Au  tau(  99) = (   0.7500000   0.0000000   0.6123725  )
       100           Au  tau( 100) = (   0.7500000   1.2990381   0.6123725  )
       101           Au  tau( 101) = (   0.1250000   1.0825318   0.6123725  )
       102           Au  tau( 102) = (   0.1250000   1.5155445   0.6123725  )
       103           Au  tau( 103) = (   0.3750000   1.0825318   0.6123725  )
       104           Au  tau( 104) = (   0.3750000   1.5155445   0.6123725  )
       105           Au  tau( 105) = (   0.6250000   1.0825318   0.6123725  )
       106           Au  tau( 106) = (   0.8750000   0.6495191   0.6123725  )
       107           Au  tau( 107) = (   0.8750000   1.0825318   0.6123725  )
       108           Au  tau( 108) = (   0.0000000   1.2990381   0.6123725  )
       109           Au  tau( 109) = (   0.5000000   0.8660254   0.6123725  )
       110           Au  tau( 110) = (   0.7500000   0.8660254   0.6123725  )
       111           Au  tau( 111) = (   0.6250000   1.5155445   0.6123725  )
       112           Au  tau( 112) = (   0.8750000   1.5155445   0.6123725  )
       113           Au  tau( 113) = (   0.1250000   0.5051815   0.8164966  )
       114           Au  tau( 114) = (   0.8750000   0.0721688   0.8164966  )
       115           Au  tau( 115) = (   0.5000000   0.2886752   0.8164966  )
       116           Au  tau( 116) = (   0.1250000   0.0721688   0.8164966  )
       117           Au  tau( 117) = (   0.3750000   0.0721688   0.8164966  )
       118           Au  tau( 118) = (   0.3750000   0.5051815   0.8164966  )
       119           Au  tau( 119) = (   0.6250000   0.0721688   0.8164966  )
       120           Au  tau( 120) = (   0.2500000   0.2886752   0.8164966  )
       121           Au  tau( 121) = (   0.2500000   0.7216878   0.8164966  )
       122           Au  tau( 122) = (   0.5000000   0.7216878   0.8164966  )
       123           Au  tau( 123) = (   0.7500000   0.2886752   0.8164966  )
       124           Au  tau( 124) = (   1.0000000   0.2886752   0.8164966  )
       125           Au  tau( 125) = (   0.1250000   0.9381942   0.8164966  )
       126           Au  tau( 126) = (   0.1250000   1.3712069   0.8164966  )
       127           Au  tau( 127) = (   0.3750000   0.9381942   0.8164966  )
       128           Au  tau( 128) = (   0.3750000   1.3712069   0.8164966  )
       129           Au  tau( 129) = (   0.6250000   0.5051815   0.8164966  )
       130           Au  tau( 130) = (   0.6250000   0.9381942   0.8164966  )
       131           Au  tau( 131) = (   0.6250000   1.3712069   0.8164966  )
       132           Au  tau( 132) = (   0.8750000   0.5051815   0.8164966  )
       133           Au  tau( 133) = (   0.8750000   0.9381942   0.8164966  )
       134           Au  tau( 134) = (   0.8750000   1.3712069   0.8164966  )
       135           Au  tau( 135) = (   0.2500000   1.1547005   0.8164966  )
       136           Au  tau( 136) = (   0.2500000   1.5877132   0.8164966  )
       137           Au  tau( 137) = (   0.5000000   1.1547005   0.8164966  )
       138           Au  tau( 138) = (   0.5000000   1.5877132   0.8164966  )
       139           Au  tau( 139) = (   0.7500000   0.7216878   0.8164966  )
       140           Au  tau( 140) = (   0.7500000   1.1547005   0.8164966  )
       141           Au  tau( 141) = (   0.7500000   1.5877132   0.8164966  )
       142           Au  tau( 142) = (   1.0000000   0.7216878   0.8164966  )
       143           Au  tau( 143) = (   1.0000000   1.1547005   0.8164966  )
       144           Au  tau( 144) = (   1.0000000   1.5877132   0.8164966  )
       145           Au  tau( 145) = (   0.2500000   0.1443375   1.0206208  )
       146           Au  tau( 146) = (   0.5000000   0.1443375   1.0206208  )
       147           Au  tau( 147) = (   0.7500000   0.1443375   1.0206208  )
       148           Au  tau( 148) = (   0.1250000   0.3608439   1.0206208  )
       149           Au  tau( 149) = (   0.3750000   0.3608439   1.0206208  )
       150           Au  tau( 150) = (   0.3750000   0.7938566   1.0206208  )
       151           Au  tau( 151) = (   0.2500000   0.5773503   1.0206208  )
       152           Au  tau( 152) = (   0.2500000   1.0103630   1.0206208  )
       153           Au  tau( 153) = (   0.2500000   1.4433757   1.0206208  )
       154           Au  tau( 154) = (   0.5000000   0.5773503   1.0206208  )
       155           Au  tau( 155) = (   0.5000000   1.0103630   1.0206208  )
       156           Au  tau( 156) = (   0.5000000   1.4433757   1.0206208  )
       157           Au  tau( 157) = (   0.7500000   0.5773503   1.0206208  )
       158           Au  tau( 158) = (   0.7500000   1.0103630   1.0206208  )
       159           Au  tau( 159) = (   0.7500000   1.4433757   1.0206208  )
       160           Au  tau( 160) = (   1.0000000   0.1443375   1.0206208  )
       161           Au  tau( 161) = (   1.0000000   0.5773503   1.0206208  )
       162           Au  tau( 162) = (   1.0000000   1.0103630   1.0206208  )
       163           Au  tau( 163) = (   1.0000000   1.4433757   1.0206208  )
       164           Au  tau( 164) = (   0.1250000   0.7938566   1.0206208  )
       165           Au  tau( 165) = (   0.1250000   1.2268693   1.0206208  )
       166           Au  tau( 166) = (   0.1250000   1.6598820   1.0206208  )
       167           Au  tau( 167) = (   0.3750000   1.2268693   1.0206208  )
       168           Au  tau( 168) = (   0.3750000   1.6598820   1.0206208  )
       169           Au  tau( 169) = (   0.6250000   0.3608439   1.0206208  )
       170           Au  tau( 170) = (   0.6250000   0.7938566   1.0206208  )
       171           Au  tau( 171) = (   0.6250000   1.2268693   1.0206208  )
       172           Au  tau( 172) = (   0.6250000   1.6598820   1.0206208  )
       173           Au  tau( 173) = (   0.8750000   0.3608439   1.0206208  )
       174           Au  tau( 174) = (   0.8750000   0.7938566   1.0206208  )
       175           Au  tau( 175) = (   0.8750000   1.2268693   1.0206208  )
       176           Au  tau( 176) = (   0.8750000   1.6598820   1.0206208  )
       177           Au  tau( 177) = (   0.0000000   0.0000000   1.2247448  )
       178           Au  tau( 178) = (   0.0000000   0.4330127   1.2247448  )
       179           Au  tau( 179) = (   0.2500000   0.0000000   1.2247448  )
       180           Au  tau( 180) = (   0.2500000   0.4330127   1.2247448  )
       181           Au  tau( 181) = (   0.5000000   0.0000000   1.2247448  )
       182           Au  tau( 182) = (   0.7500000   0.0000000   1.2247448  )
       183           Au  tau( 183) = (   0.1250000   0.2165064   1.2247448  )
       184           Au  tau( 184) = (   0.3750000   0.2165064   1.2247448  )
       185           Au  tau( 185) = (   0.6250000   0.2165064   1.2247448  )
       186           Au  tau( 186) = (   0.0000000   1.2990381   1.2247448  )
       187           Au  tau( 187) = (   0.2500000   0.8660254   1.2247448  )
       188           Au  tau( 188) = (   0.2500000   1.2990381   1.2247448  )
       189           Au  tau( 189) = (   0.5000000   0.8660254   1.2247448  )
       190           Au  tau( 190) = (   0.5000000   1.2990381   1.2247448  )
       191           Au  tau( 191) = (   0.7500000   0.8660254   1.2247448  )
       192           Au  tau( 192) = (   0.7500000   1.2990381   1.2247448  )
       193           Au  tau( 193) = (   0.1250000   0.6495191   1.2247448  )
       194           Au  tau( 194) = (   0.1250000   1.0825318   1.2247448  )
       195           Au  tau( 195) = (   0.1250000   1.5155445   1.2247448  )
       196           Au  tau( 196) = (   0.3750000   0.6495191   1.2247448  )
       197           Au  tau( 197) = (   0.3750000   1.0825318   1.2247448  )
       198           Au  tau( 198) = (   0.3750000   1.5155445   1.2247448  )
       199           Au  tau( 199) = (   0.6250000   0.6495191   1.2247448  )
       200           Au  tau( 200) = (   0.6250000   1.0825318   1.2247448  )
       201           Au  tau( 201) = (   0.6250000   1.5155445   1.2247448  )
       202           Au  tau( 202) = (   0.8750000   0.2165064   1.2247448  )
       203           Au  tau( 203) = (   0.8750000   0.6495191   1.2247448  )
       204           Au  tau( 204) = (   0.8750000   1.0825318   1.2247448  )
       205           Au  tau( 205) = (   0.8750000   1.5155445   1.2247448  )
       206           Au  tau( 206) = (   0.0000000   0.8660254   1.2247448  )
       207           Au  tau( 207) = (   0.5000000   0.4330127   1.2247448  )
       208           Au  tau( 208) = (   0.7500000   0.4330127   1.2247448  )
       209           Au  tau( 209) = (   0.1250000   0.9381942   1.4288690  )
       210           Au  tau( 210) = (   0.3750000   0.9381942   1.4288690  )
       211           Au  tau( 211) = (   0.6250000   0.9381942   1.4288690  )
       212           Au  tau( 212) = (   0.8750000   0.5051815   1.4288690  )
       213           Au  tau( 213) = (   0.2500000   1.1547005   1.4288690  )
       214           Au  tau( 214) = (   0.5000000   0.7216878   1.4288690  )
       215           Au  tau( 215) = (   0.7500000   0.7216878   1.4288690  )
       216           Au  tau( 216) = (   1.0000000   0.7216878   1.4288690  )
       217           Au  tau( 217) = (   0.1250000   0.0721688   1.4288690  )
       218           Au  tau( 218) = (   0.1250000   0.5051815   1.4288690  )
       219           Au  tau( 219) = (   0.1250000   1.3712069   1.4288690  )
       220           Au  tau( 220) = (   0.3750000   0.0721688   1.4288690  )
       221           Au  tau( 221) = (   0.3750000   0.5051815   1.4288690  )
       222           Au  tau( 222) = (   0.6250000   0.0721688   1.4288690  )
       223           Au  tau( 223) = (   0.6250000   0.5051815   1.4288690  )
       224           Au  tau( 224) = (   0.8750000   0.0721688   1.4288690  )
       225           Au  tau( 225) = (   0.8750000   0.9381942   1.4288690  )
       226           Au  tau( 226) = (   0.2500000   0.2886752   1.4288690  )
       227           Au  tau( 227) = (   0.2500000   0.7216878   1.4288690  )
       228           Au  tau( 228) = (   0.2500000   1.5877132   1.4288690  )
       229           Au  tau( 229) = (   0.5000000   0.2886752   1.4288690  )
       230           Au  tau( 230) = (   0.5000000   1.1547005   1.4288690  )
       231           Au  tau( 231) = (   0.7500000   0.2886752   1.4288690  )
       232           Au  tau( 232) = (   0.7500000   1.1547005   1.4288690  )
       233           Au  tau( 233) = (   1.0000000   0.2886752   1.4288690  )
       234           Au  tau( 234) = (   1.0000000   1.1547005   1.4288690  )
       235           Au  tau( 235) = (   0.3750000   1.3712069   1.4288690  )
       236           Au  tau( 236) = (   0.6250000   1.3712069   1.4288690  )
       237           Au  tau( 237) = (   0.8750000   1.3712069   1.4288690  )
       238           Au  tau( 238) = (   0.5000000   1.5877132   1.4288690  )
       239           Au  tau( 239) = (   0.7500000   1.5877132   1.4288690  )
       240           Au  tau( 240) = (   1.0000000   1.5877132   1.4288690  )
       241           Au  tau( 241) = (   0.2500000   1.0103630   1.6329931  )
       242           Au  tau( 242) = (   0.5000000   1.0103630   1.6329931  )
       243           Au  tau( 243) = (   0.7500000   0.5773503   1.6329931  )
       244           Au  tau( 244) = (   1.0000000   0.5773503   1.6329931  )
       245           Au  tau( 245) = (   0.1250000   1.2268693   1.6329931  )
       246           Au  tau( 246) = (   0.3750000   0.7938566   1.6329931  )
       247           Au  tau( 247) = (   0.6250000   0.7938566   1.6329931  )
       248           Au  tau( 248) = (   0.8750000   0.7938566   1.6329931  )
       249           Au  tau( 249) = (   0.2500000   0.1443375   1.6329931  )
       250           Au  tau( 250) = (   0.2500000   0.5773503   1.6329931  )
       251           Au  tau( 251) = (   0.2500000   1.4433757   1.6329931  )
       252           Au  tau( 252) = (   0.5000000   0.1443375   1.6329931  )
       253           Au  tau( 253) = (   0.5000000   0.5773503   1.6329931  )
       254           Au  tau( 254) = (   0.7500000   0.1443375   1.6329931  )
       255           Au  tau( 255) = (   0.7500000   1.0103630   1.6329931  )
       256           Au  tau( 256) = (   1.0000000   0.1443375   1.6329931  )
       257           Au  tau( 257) = (   1.0000000   1.0103630   1.6329931  )
       258           Au  tau( 258) = (   0.1250000   0.3608439   1.6329931  )
       259           Au  tau( 259) = (   0.1250000   0.7938566   1.6329931  )
       260           Au  tau( 260) = (   0.1250000   1.6598820   1.6329931  )
       261           Au  tau( 261) = (   0.3750000   0.3608439   1.6329931  )
       262           Au  tau( 262) = (   0.3750000   1.2268693   1.6329931  )
       263           Au  tau( 263) = (   0.6250000   0.3608439   1.6329931  )
       264           Au  tau( 264) = (   0.6250000   1.2268693   1.6329931  )
       265           Au  tau( 265) = (   0.8750000   0.3608439   1.6329931  )
       266           Au  tau( 266) = (   0.8750000   1.2268693   1.6329931  )
       267           Au  tau( 267) = (   0.5000000   1.4433757   1.6329931  )
       268           Au  tau( 268) = (   0.7500000   1.4433757   1.6329931  )
       269           Au  tau( 269) = (   1.0000000   1.4433757   1.6329931  )
       270           Au  tau( 270) = (   0.3750000   1.6598820   1.6329931  )
       271           Au  tau( 271) = (   0.6250000   1.6598820   1.6329931  )
       272           Au  tau( 272) = (   0.8750000   1.6598820   1.6329931  )
       273           Au  tau( 273) = (   0.1250000   1.0825318   1.8371173  )
       274           Au  tau( 274) = (   0.3750000   1.0825318   1.8371173  )
       275           Au  tau( 275) = (   0.6250000   0.6495191   1.8371173  )
       276           Au  tau( 276) = (   0.8750000   0.6495191   1.8371173  )
       277           Au  tau( 277) = (   0.1250000   0.2165064   1.8371173  )
       278           Au  tau( 278) = (   0.1250000   0.6495191   1.8371173  )
       279           Au  tau( 279) = (   0.1250000   1.5155445   1.8371173  )
       280           Au  tau( 280) = (   0.3750000   0.2165064   1.8371173  )
       281           Au  tau( 281) = (   0.3750000   0.6495191   1.8371173  )
       282           Au  tau( 282) = (   0.6250000   0.2165064   1.8371173  )
       283           Au  tau( 283) = (   0.6250000   1.0825318   1.8371173  )
       284           Au  tau( 284) = (   0.8750000   0.2165064   1.8371173  )
       285           Au  tau( 285) = (   0.8750000   1.0825318   1.8371173  )
       286           Au  tau( 286) = (   0.8750000   1.5155445   1.8371173  )
       287           Au  tau( 287) = (   0.3750000   1.5155445   1.8371173  )
       288           Au  tau( 288) = (   0.6250000   1.5155445   1.8371173  )

     number of k points=     6  Marzari-Vanderbilt smearing, width (Ry)=  0.0500
                       cart. coord. in units 2pi/alat
        k(    1) = (   0.0833333   0.0962250   0.0000000), wk =   0.4444444
        k(    2) = (   0.0833333  -0.2886751   0.0000000), wk =   0.2222222
        k(    3) = (   0.2500000   0.0962250   0.0000000), wk =   0.4444444
        k(    4) = (   0.2500000  -0.2886751   0.0000000), wk =   0.2222222
        k(    5) = (   0.4166667   0.0962250   0.0000000), wk =   0.4444444
        k(    6) = (   0.4166667  -0.2886751   0.0000000), wk =   0.2222222

     Dense  grid:  5700737 G-vectors     FFT dimensions: ( 135, 240, 360)

     Smooth grid:  1762171 G-vectors     FFT dimensions: (  90, 160, 243)

     Estimated max dynamical RAM per process >      11.78 GB

     Estimated total dynamical RAM >     141.31 GB

     Initial potential from superposition of free atoms

     starting charge 3164.65577, renormalised to 3168.00000

     negative rho (up, down):  7.682E+00 0.000E+00
     Starting wfcs are 2592 randomized atomic wfcs

     total cpu time spent up to now is      176.9 secs

     Self-consistent Calculation

     iteration #  1     ecut=    40.00 Ry     beta= 0.70
     Davidson diagonalization with overlap
     ethr =  1.00E-02,  avg # of iterations =  3.0

     Threshold (ethr) on eigenvalues was too large:
     Diagonalizing with lowered threshold

     Davidson diagonalization with overlap
     ethr =  3.34E-04,  avg # of iterations =  3.8

     negative rho (up, down):  7.304E+00 0.000E+00

     total cpu time spent up to now is     1082.0 secs

     total energy              =  -29385.07933126 Ry
     estimated scf accuracy    <      12.62237078 Ry

     iteration #  2     ecut=    40.00 Ry     beta= 0.70
     Davidson diagonalization with overlap
     ethr =  3.98E-04,  avg # of iterations =  1.5

     negative rho (up, down):  7.713E+00 0.000E+00

     total cpu time spent up to now is     1443.8 secs

     total energy              =  -29385.64930553 Ry
     estimated scf accuracy    <       5.62937083 Ry

     iteration #  3     ecut=    40.00 Ry     beta= 0.70
     Davidson diagonalization with overlap
     ethr =  1.78E-04,  avg # of iterations =  3.2

     negative rho (up, down):  8.106E+00 0.000E+00

     total cpu time spent up to now is     1845.2 secs

     total energy              =  -29385.61545350 Ry
     estimated scf accuracy    <       3.29544259 Ry

     iteration #  4     ecut=    40.00 Ry     beta= 0.70
     Davidson diagonalization with overlap
     c_bands:  1 eigenvalues not converged
     ethr =  1.04E-04,  avg # of iterations = 10.8

     negative rho (up, down):  8.097E+00 0.000E+00

     total cpu time spent up to now is     2331.1 secs

     total energy              =  -29385.56227010 Ry
     estimated scf accuracy    <       1.61775418 Ry

     iteration #  5     ecut=    40.00 Ry     beta= 0.70
     Davidson diagonalization with overlap
     c_bands:  1 eigenvalues not converged
     ethr =  5.11E-05,  avg # of iterations = 14.5

     negative rho (up, down):  7.903E+00 0.000E+00

     total cpu time spent up to now is     2879.8 secs

     total energy              =  -29385.54007601 Ry
     estimated scf accuracy    <       0.98838329 Ry

     iteration #  6     ecut=    40.00 Ry     beta= 0.70
     Davidson diagonalization with overlap
     c_bands:  2 eigenvalues not converged
     ethr =  3.12E-05,  avg # of iterations = 11.2

     negative rho (up, down):  7.916E+00 0.000E+00

     total cpu time spent up to now is     3374.9 secs

     total energy              =  -29385.51105173 Ry
     estimated scf accuracy    <       0.94090650 Ry

     iteration #  7     ecut=    40.00 Ry     beta= 0.70
     Davidson diagonalization with overlap
     c_bands:  1 eigenvalues not converged
     ethr =  2.97E-05,  avg # of iterations =  7.3

     negative rho (up, down):  7.946E+00 0.000E+00

     total cpu time spent up to now is     3818.8 secs

     total energy              =  -29385.48116381 Ry
     estimated scf accuracy    <       0.96148827 Ry

     iteration #  8     ecut=    40.00 Ry     beta= 0.70
     Davidson diagonalization with overlap
     ethr =  2.97E-05,  avg # of iterations =  2.0

     negative rho (up, down):  8.105E+00 0.000E+00

     total cpu time spent up to now is     4209.2 secs

     total energy              =  -29385.40502105 Ry
     estimated scf accuracy    <       0.69102532 Ry

     iteration #  9     ecut=    40.00 Ry     beta= 0.70
     Davidson diagonalization with overlap
     ethr =  2.18E-05,  avg # of iterations = 13.8

     negative rho (up, down):  8.050E+00 0.000E+00

     total cpu time spent up to now is     4936.2 secs

     total energy              =  -29385.49474286 Ry
     estimated scf accuracy    <       1.04099771 Ry

     iteration # 10     ecut=    40.00 Ry     beta= 0.70
     Davidson diagonalization with overlap
     ethr =  2.18E-05,  avg # of iterations =  1.3

     negative rho (up, down):  8.124E+00 0.000E+00

     total cpu time spent up to now is     5288.1 secs

     total energy              =  -29385.44938909 Ry
     estimated scf accuracy    <       0.60543169 Ry

     iteration # 11     ecut=    40.00 Ry     beta= 0.70
     Davidson diagonalization with overlap
     ethr =  1.91E-05,  avg # of iterations =  1.0

     negative rho (up, down):  8.157E+00 0.000E+00

     total cpu time spent up to now is     5623.3 secs

     total energy              =  -29385.49654980 Ry
     estimated scf accuracy    <       0.28631938 Ry

     iteration # 12     ecut=    40.00 Ry     beta= 0.70
     Davidson diagonalization with overlap
     ethr =  9.04E-06,  avg # of iterations =  3.3

     negative rho (up, down):  8.300E+00 0.000E+00

     total cpu time spent up to now is     6038.3 secs

     total energy              =  -29385.41207193 Ry
     estimated scf accuracy    <       0.75640053 Ry

     iteration # 13     ecut=    40.00 Ry     beta= 0.70
     Davidson diagonalization with overlap
     c_bands:  1 eigenvalues not converged
     ethr =  9.04E-06,  avg # of iterations = 15.7

     negative rho (up, down):  8.110E+00 0.000E+00

     total cpu time spent up to now is     6650.9 secs

     total energy              =  -29385.40668130 Ry
     estimated scf accuracy    <       0.08539455 Ry

     iteration # 14     ecut=    40.00 Ry     beta= 0.70
     Davidson diagonalization with overlap
     ethr =  2.70E-06,  avg # of iterations = 12.7

     negative rho (up, down):  8.056E+00 0.000E+00

     total cpu time spent up to now is     7766.8 secs

     total energy              =  -29385.43903211 Ry
     estimated scf accuracy    <       0.21999836 Ry

     iteration # 15     ecut=    40.00 Ry     beta= 0.70
     Davidson diagonalization with overlap
     ethr =  2.70E-06,  avg # of iterations =  2.0

     negative rho (up, down):  7.985E+00 0.000E+00

     total cpu time spent up to now is     8173.0 secs

     total energy              =  -29385.41677938 Ry
     estimated scf accuracy    <       0.12821846 Ry

     iteration # 16     ecut=    40.00 Ry     beta= 0.70
     Davidson diagonalization with overlap
     ethr =  2.70E-06,  avg # of iterations =  9.0

     negative rho (up, down):  7.899E+00 0.000E+00

     total cpu time spent up to now is     8747.1 secs

     total energy              =  -29385.42658540 Ry
     estimated scf accuracy    <       0.00186473 Ry

     iteration # 17     ecut=    40.00 Ry     beta= 0.70
     Davidson diagonalization with overlap
     ethr =  5.89E-08,  avg # of iterations = 11.0

     negative rho (up, down):  7.845E+00 0.000E+00

     total cpu time spent up to now is     9391.2 secs

     total energy              =  -29385.42605887 Ry
     estimated scf accuracy    <       0.00274526 Ry

     iteration # 18     ecut=    40.00 Ry     beta= 0.70
     Davidson diagonalization with overlap
     c_bands:  1 eigenvalues not converged
     ethr =  5.89E-08,  avg # of iterations = 14.7

     negative rho (up, down):  7.837E+00 0.000E+00

     total cpu time spent up to now is     9967.0 secs

     total energy              =  -29385.42653233 Ry
     estimated scf accuracy    <       0.00029507 Ry

     iteration # 19     ecut=    40.00 Ry     beta= 0.70
     Davidson diagonalization with overlap
     ethr =  9.31E-09,  avg # of iterations =  8.8

     negative rho (up, down):  7.835E+00 0.000E+00

     total cpu time spent up to now is    10532.8 secs

     total energy              =  -29385.42672719 Ry
     estimated scf accuracy    <       0.00018503 Ry

     iteration # 20     ecut=    40.00 Ry     beta= 0.70
     Davidson diagonalization with overlap
     ethr =  5.84E-09,  avg # of iterations =  4.0

     negative rho (up, down):  7.835E+00 0.000E+00

     total cpu time spent up to now is    10988.7 secs

     total energy              =  -29385.42677423 Ry
     estimated scf accuracy    <       0.00017605 Ry

     iteration # 21     ecut=    40.00 Ry     beta= 0.70
     Davidson diagonalization with overlap
     ethr =  5.56E-09,  avg # of iterations =  2.2

     negative rho (up, down):  7.835E+00 0.000E+00

     total cpu time spent up to now is    11386.5 secs

     total energy              =  -29385.42679047 Ry
     estimated scf accuracy    <       0.00000232 Ry

     iteration # 22     ecut=    40.00 Ry     beta= 0.70
     Davidson diagonalization with overlap
     ethr =  7.32E-11,  avg # of iterations =  4.8

     negative rho (up, down):  7.835E+00 0.000E+00

     total cpu time spent up to now is    11883.1 secs

     End of self-consistent calculation

          k = 0.0833 0.0962 0.0000 (220303 PWs)   bands (ev):

    -0.8130  -0.5140  -0.4714  -0.2263  -0.1779   0.0254   0.1019   0.2537
     0.3116   0.4900   0.5491   0.5640   0.5801   0.6014   0.6350   0.7195
     0.7832   0.8244   0.8362   0.8821   0.9223   0.9650   0.9951   1.0079
     1.0167   1.0909   1.1250   1.1388   1.2050   1.2159   1.2463   1.2568
     1.3386   1.3567   1.3853   1.4018   1.4434   1.4637   1.5057   1.5098
     1.5526   1.5573   1.5648   1.5683   1.5732   1.5834   1.5911   1.6035
     1.6142   1.6194   1.6432   1.6938   1.7090   1.7228   1.7260   1.7269
     1.7516   1.7547   1.7934   1.8039   1.8167   1.8290   1.8300   1.8327
     1.8476   1.8505   1.8521   1.8546   1.8556   1.8570   1.8641   1.8682
     1.8812   1.8949   1.9102   1.9217   1.9392   1.9454   1.9475   1.9648
     1.9730   1.9990   1.9998   2.0095   2.0104   2.0133   2.0284   2.0302
     2.0336   2.0406   2.0427   2.0559   2.0657   2.0742   2.0844   2.0882
     2.1220   2.1227   2.1254   2.1272   2.1291   2.1440   2.1466   2.1515
     2.1520   2.1577   2.1616   2.1635   2.1664   2.1688   2.1714   2.1763
     2.1962   2.2124   2.2257   2.2292   2.2302   2.2340   2.2342   2.2381
     2.2417   2.2441   2.2477   2.2734   2.2775   2.2806   2.2886   2.2906
     2.3019   2.3027   2.3045   2.3080   2.3086   2.3099   2.3147   2.3179
     2.3229   2.3253   2.3294   2.3337   2.3382   2.3404   2.3438   2.3449
     2.3494   2.3502   2.3580   2.3701   2.3765   2.3807   2.3810   2.3824
     2.3833   2.3915   2.3991   2.4063   2.4080   2.4115   2.4118   2.4122
     2.4165   2.4230   2.4262   2.4264   2.4282   2.4301   2.4365   2.4395
     2.4407   2.4493   2.4501   2.4515   2.4522   2.4562   2.4603   2.4685
     2.4743   2.4758   2.4766   2.4836   2.4838   2.4857   2.4886   2.4953
     2.5108   2.5135   2.5151   2.5245   2.5357   2.5375   2.5379   2.5430
     2.5462   2.5534   2.5556   2.5579   2.5646   2.5680   2.5687   2.5741
     2.5756   2.5800   2.5801   2.5812   2.5880   2.5904   2.5932   2.5944
     2.5981   2.5985   2.5986   2.6021   2.6139   2.6143   2.6169   2.6207
     2.6233   2.6351   2.6415   2.6540   2.6549   2.6590   2.6613   2.6637
     2.6672   2.6687   2.6700   2.6730   2.6805   2.6846   2.6932   2.6941
     2.6980   2.7012   2.7148   2.7165   2.7197   2.7199   2.7237   2.7267
     2.7340   2.7429   2.7450   2.7476   2.7590   2.7601   2.7689   2.7717
     2.7725   2.7757   2.7781   2.7809   2.7854   2.7906   2.7937   2.8061
     2.8065   2.8067   2.8071   2.8124   2.8125   2.8147   2.8193   2.8246
     2.8344   2.8370   2.8490   2.8508   2.8554   2.8555   2.8573   2.8595
     2.8600   2.8608   2.8754   2.8758   2.8986   2.9117   2.9196   2.9208
     2.9228   2.9294   2.9326   2.9373   2.9403   2.9479   2.9503   2.9564
     2.9567   2.9612   2.9794   2.9841   2.9974   3.0086   3.0112   3.0219
     3.0237   3.0439   3.0561   3.0565   3.0592   3.0675   3.0691   3.0694
     3.0726   3.0804   3.0814   3.0827   3.0834   3.0851   3.0933   3.1109
     3.1160   3.1171   3.1199   3.1221   3.1307   3.1331   3.1379   3.1400
     3.1428   3.1429   3.1479   3.1630   3.1674   3.1695   3.1760   3.1802
     3.1811   3.1909   3.1946   3.1965   3.1988   3.1992   3.2021   3.2087
     3.2088   3.2123   3.2139   3.2232   3.2249   3.2282   3.2318   3.2336
     3.2372   3.2452   3.2613   3.2628   3.2673   3.2742   3.2791   3.2817
     3.2842   3.2909   3.2926   3.2934   3.3001   3.3126   3.3166   3.3217
     3.3244   3.3244   3.3252   3.3262   3.3275   3.3291   3.3318   3.3333
     3.3365   3.3438   3.3475   3.3506   3.3539   3.3552   3.3606   3.3606
     3.3694   3.3732   3.3732   3.3757   3.3758   3.3778   3.3791   3.3817
     3.4049   3.4061   3.4066   3.4096   3.4138   3.4166   3.4213   3.4218
     3.4277   3.4347   3.4388   3.4389   3.4423   3.4477   3.4484   3.4495
     3.4593   3.4631   3.4633   3.4643   3.4731   3.4748   3.4757   3.4759
     3.4788   3.4824   3.4860   3.4871   3.4961   3.4974   3.5022   3.5062
     3.5090   3.5120   3.5149   3.5150   3.5186   3.5267   3.5319   3.5333
     3.5359   3.5381   3.5389   3.5436   3.5479   3.5537   3.5579   3.5628
     3.5669   3.5689   3.5709   3.5762   3.5764   3.5801   3.5855   3.5868
     3.5908   3.5919   3.5934   3.5971   3.5982   3.6016   3.6017   3.6018
     3.6075   3.6089   3.6210   3.6211   3.6244   3.6246   3.6252   3.6259
     3.6263   3.6297   3.6325   3.6447   3.6468   3.6479   3.6481   3.6594
     3.6620   3.6790   3.6846   3.6907   3.6923   3.6933   3.6961   3.6978
     3.7043   3.7091   3.7115   3.7151   3.7189   3.7200   3.7209   3.7304
     3.7319   3.7326   3.7343   3.7349   3.7436   3.7458   3.7494   3.7503
     3.7592   3.7594   3.7619   3.7656   3.7714   3.7731   3.7743   3.7759
     3.7769   3.7788   3.7852   3.7862   3.7876   3.7903   3.7920   3.7940
     3.8014   3.8050   3.8107   3.8139   3.8188   3.8252   3.8266   3.8281
     3.8357   3.8434   3.8466   3.8493   3.8524   3.8554   3.8556   3.8570
     3.8649   3.8677   3.8682   3.8697   3.8697   3.8735   3.8738   3.8750
     3.8765   3.8935   3.8952   3.9003   3.9020   3.9043   3.9072   3.9164
     3.9193   3.9196   3.9206   3.9225   3.9234   3.9245   3.9260   3.9307
     3.9327   3.9341   3.9345   3.9388   3.9408   3.9487   3.9495   3.9529
     3.9549   3.9552   3.9609   3.9635   3.9647   3.9676   3.9709   3.9757
     3.9784   3.9799   3.9801   3.9835   3.9864   3.9877   3.9916   3.9923
     3.9940   4.0056   4.0057   4.0118   4.0125   4.0153   4.0163   4.0193
     4.0217   4.0261   4.0264   4.0282   4.0390   4.0391   4.0417   4.0424
     4.0521   4.0533   4.0578   4.0645   4.0682   4.0685   4.0696   4.0709
     4.0731   4.0732   4.0764   4.0789   4.0801   4.0857   4.0867   4.0912
     4.0953   4.0968   4.0978   4.0985   4.0992   4.1022   4.1049   4.1078
     4.1096   4.1099   4.1140   4.1141   4.1177   4.1197   4.1202   4.1296
     4.1297   4.1317   4.1337   4.1350   4.1393   4.1399   4.1411   4.1421
     4.1424   4.1499   4.1548   4.1569   4.1587   4.1623   4.1624   4.1638
     4.1645   4.1648   4.1654   4.1656   4.1664   4.1673   4.1694   4.1710
     4.1743   4.1754   4.1754   4.1782   4.1786   4.1811   4.1831   4.1831
     4.1870   4.1889   4.1905   4.1906   4.1935   4.1940   4.1971   4.1987
     4.1994   4.1997   4.2003   4.2008   4.2021   4.2038   4.2050   4.2057
     4.2066   4.2101   4.2140   4.2151   4.2182   4.2185   4.2186   4.2271
     4.2308   4.2316   4.2317   4.2357   4.2368   4.2373   4.2377   4.2388
     4.2442   4.2502   4.2542   4.2548   4.2559   4.2565   4.2579   4.2611
     4.2653   4.2678   4.2700   4.2739   4.2745   4.2779   4.2783   4.2826
     4.2886   4.2941   4.2960   4.2967   4.3002   4.3004   4.3057   4.3061
     4.3144   4.3147   4.3152   4.3184   4.3218   4.3223   4.3224   4.3279
     4.3329   4.3384   4.3394   4.3446   4.3480   4.3504   4.3535   4.3559
     4.3566   4.3577   4.3594   4.3625   4.3672   4.3688   4.3690   4.3695
     4.3703   4.3708   4.3719   4.3789   4.3807   4.3814   4.3827   4.3837
     4.3894   4.3927   4.3937   4.3944   4.3995   4.3995   4.4013   4.4065
     4.4254   4.4265   4.4266   4.4295   4.4296   4.4314   4.4334   4.4343
     4.4420   4.4512   4.4514   4.4525   4.4625   4.4630   4.4660   4.4666
     4.4685   4.4711   4.4781   4.4841   4.4854   4.4905   4.4910   4.4916
     4.4934   4.4955   4.4990   4.5049   4.5083   4.5097   4.5127   4.5188
     4.5197   4.5223   4.5249   4.5281   4.5335   4.5342   4.5355   4.5360
     4.5362   4.5381   4.5406   4.5483   4.5499   4.5558   4.5660   4.5687
     4.5743   4.5769   4.5787   4.5789   4.5862   4.5908   4.5973   4.6061
     4.6078   4.6218   4.6325   4.6325   4.6361   4.6396   4.6449   4.6475
     4.6521   4.6591   4.6619   4.6630   4.6667   4.6803   4.6844   4.6859
     4.6872   4.6917   4.6917   4.6926   4.6974   4.6991   4.6991   4.7036
     4.7083   4.7143   4.7183   4.7188   4.7210   4.7251   4.7255   4.7306
     4.7374   4.7445   4.7455   4.7466   4.7489   4.7514   4.7606   4.7643
     4.7649   4.7727   4.7788   4.7852   4.7973   4.8013   4.8058   4.8102
     4.8113   4.8137   4.8149   4.8176   4.8234   4.8240   4.8254   4.8260
     4.8275   4.8281   4.8288   4.8300   4.8403   4.8422   4.8496   4.8508
     4.8585   4.8594   4.8716   4.8720   4.8722   4.8738   4.8786   4.8799
     4.8809   4.8820   4.8859   4.8883   4.8918   4.8945   4.8961   4.8989
     4.9010   4.9028   4.9065   4.9094   4.9100   4.9106   4.9184   4.9252
     4.9274   4.9298   4.9352   4.9412   4.9463   4.9534   4.9563   4.9584
     4.9595   4.9619   4.9647   4.9711   4.9723   4.9729   4.9749   4.9809
     4.9812   4.9819   4.9836   4.9912   4.9913   4.9930   4.9988   4.9989
     5.0020   5.0065   5.0116   5.0145   5.0165   5.0191   5.0228   5.0247
     5.0293   5.0298   5.0305   5.0340   5.0341   5.0352   5.0372   5.0376
     5.0423   5.0464   5.0564   5.0586   5.0604   5.0606   5.0631   5.0695
     5.0733   5.0783   5.0820   5.0843   5.0864   5.0881   5.0945   5.1087
     5.1093   5.1115   5.1211   5.1223   5.1243   5.1280   5.1292   5.1334
     5.1352   5.1353   5.1384   5.1418   5.1486   5.1512   5.1512   5.1519
     5.1539   5.1553   5.1603   5.1610   5.1617   5.1732   5.1803   5.1816
     5.1853   5.1901   5.1907   5.1908   5.1928   5.1998   5.2009   5.2012
     5.2043   5.2070   5.2159   5.2160   5.2220   5.2235   5.2244   5.2249
     5.2284   5.2291   5.2310   5.2316   5.2316   5.2320   5.2362   5.2381
     5.2385   5.2389   5.2391   5.2409   5.2424   5.2461   5.2496   5.2502
     5.2585   5.2589   5.2603   5.2614   5.2621   5.2645   5.2649   5.2659
     5.2688   5.2703   5.2740   5.2754   5.2767   5.2828   5.2834   5.2854
     5.2857   5.2872   5.2886   5.2961   5.2971   5.2992   5.3119   5.3160
     5.3188   5.3198   5.3219   5.3264   5.3269   5.3273   5.3310   5.3321
     5.3343   5.3369   5.3402   5.3442   5.3445   5.3472   5.3510   5.3520
     5.3538   5.3544   5.3555   5.3642   5.3671   5.3730   5.3751   5.3761
     5.3762   5.3766   5.3789   5.3808   5.3876   5.3897   5.3950   5.3951
     5.3986   5.4028   5.4033   5.4062   5.4063   5.4090   5.4130   5.4139
     5.4167   5.4188   5.4198   5.4240   5.4279   5.4313   5.4317   5.4341
     5.4460   5.4504   5.4522   5.4534   5.4561   5.4575   5.4592   5.4607
     5.4728   5.4742   5.4744   5.4783   5.4791   5.4868   5.4887   5.4895
     5.4949   5.4961   5.5088   5.5109   5.5162   5.5163   5.5185   5.5320
     5.5333   5.5350   5.5358   5.5370   5.5399   5.5424   5.5427   5.5453
     5.5469   5.5470   5.5509   5.5548   5.5553   5.5557   5.5642   5.5678
     5.5724   5.5767   5.5767   5.5770   5.5777   5.5821   5.5936   5.5990
     5.6001   5.6045   5.6062   5.6075   5.6109   5.6201   5.6216   5.6225
     5.6271   5.6319   5.6405   5.6411   5.6449   5.6452   5.6471   5.6477
     5.6568   5.6580   5.6591   5.6605   5.6679   5.6744   5.6749   5.6759
     5.6785   5.6787   5.6856   5.6966   5.6970   5.6970   5.6997   5.6998
     5.7079   5.7092   5.7104   5.7121   5.7246   5.7287   5.7297   5.7301
     5.7307   5.7310   5.7333   5.7428   5.7471   5.7481   5.7483   5.7492
     5.7565   5.7607   5.7621   5.7626   5.7667   5.7690   5.7697   5.7723
     5.7763   5.7778   5.7906   5.7979   5.8000   5.8049   5.8070   5.8075
     5.8104   5.8116   5.8213   5.8241   5.8288   5.8305   5.8325   5.8340
     5.8373   5.8437   5.8485   5.8537   5.8541   5.8546   5.8570   5.8573
     5.8580   5.8597   5.8598   5.8650   5.8653   5.8667   5.8762   5.8823
     5.8889   5.8928   5.8963   5.8971   5.9005   5.9020   5.9034   5.9059
     5.9105   5.9107   5.9165   5.9251   5.9395   5.9405   5.9426   5.9462
     5.9468   5.9489   5.9494   5.9574   5.9579   5.9587   5.9591   5.9598
     5.9629   5.9685   5.9687   5.9769   5.9771   5.9779   5.9806   5.9824
     5.9908   5.9953   5.9954   5.9962   5.9986   6.0094   6.0110   6.0130
     6.0130   6.0141   6.0277   6.0282   6.0359   6.0439   6.0477   6.0515
     6.0527   6.0528   6.0535   6.0561   6.0572   6.0658   6.0667   6.0703
     6.0718   6.0724   6.0729   6.0732   6.0735   6.0738   6.0765   6.0773
     6.0858   6.0888   6.0906   6.0910   6.0943   6.0970   6.0976   6.1008
     6.1009   6.1069   6.1075   6.1080   6.1082   6.1167   6.1179   6.1222
     6.1227   6.1244   6.1292   6.1300   6.1336   6.1391   6.1400   6.1425
     6.1428   6.1449   6.1499   6.1519   6.1528   6.1544   6.1573   6.1622
     6.1651   6.1657   6.1674   6.1685   6.1697   6.1749   6.1762   6.1782
     6.1792   6.1817   6.1841   6.1857   6.1928   6.1960   6.1961   6.1994
     6.2013   6.2057   6.2064   6.2092   6.2137   6.2137   6.2141   6.2188
     6.2195   6.2208   6.2211   6.2254   6.2258   6.2313   6.2333   6.2338
     6.2346   6.2348   6.2351   6.2389   6.2467   6.2481   6.2528   6.2575
     6.2596   6.2597   6.2635   6.2647   6.2656   6.2669   6.2672   6.2730
     6.2741   6.2766   6.2790   6.2825   6.2826   6.2838   6.2911   6.2930
     6.2937   6.2944   6.2975   6.3036   6.3070   6.3138   6.3171   6.3191
     6.3228   6.3278   6.3284   6.3309   6.3337   6.3361   6.3362   6.3374
     6.3453   6.3458   6.3459   6.3460   6.3472   6.3476   6.3496   6.3588
     6.3608   6.3621   6.3647   6.3649   6.3700   6.3715   6.3744   6.3751
     6.3761   6.3763   6.3772   6.3776   6.3777   6.3787   6.3795   6.3832
     6.3850   6.3864   6.3879   6.3904   6.3921   6.3924   6.3942   6.3956
     6.3961   6.3979   6.3988   6.4043   6.4055   6.4090   6.4091   6.4162
     6.4185   6.4243   6.4250   6.4285   6.4317   6.4324   6.4345   6.4346
     6.4385   6.4423   6.4453   6.4483   6.4496   6.4515   6.4526   6.4561
     6.4632   6.4650   6.4676   6.4699   6.4742   6.4779   6.4779   6.4783
     6.4863   6.4867   6.5014   6.5116   6.5125   6.5160   6.5172   6.5192
     6.5289   6.5342   6.5363   6.5458   6.5465   6.5466   6.5472   6.5480
     6.5483   6.5485   6.5507   6.5606   6.5644   6.5651   6.5713   6.5749
     6.5807   6.5844   6.5845   6.5852   6.5870   6.5876   6.5894   6.5917
     6.5918   6.5939   6.5956   6.5990   6.5990   6.5995   6.6009   6.6019
     6.6041   6.6047   6.6057   6.6084   6.6331   6.6345   6.6369   6.6371
     6.6381   6.6525   6.6625   6.6688   6.6704   6.6816   6.6915   6.6968
     6.6969   6.6974   6.7166   6.7170   6.7189   6.7246   6.7246   6.7281
     6.7394   6.7462   6.7564   6.7604   6.7854   6.7993   6.8158   6.8257
     6.8274   6.8336   6.8528   6.8683   6.8762   6.8950   6.8962   6.8973
     6.9054   6.9061   6.9117   6.9123   6.9127   6.9339   6.9557   6.9978
     7.0625   7.0629   7.0666   7.0798   7.1344   7.1468   7.2575   7.2655
     7.3379   7.3796   7.4070   7.4966   7.5253   7.5265   7.5292   7.5832
     7.6142   7.6220   7.6392   7.6697   7.6861   7.6910   7.7171   7.7395
     7.7969   7.7987   7.8002   7.8060   7.8154   7.8493   7.8509   7.8520
     7.8661   7.8702   7.8919   8.0011   8.0289   8.0375   8.0476   8.0544
     8.0607   8.0662   8.0794   8.1132   8.1461   8.1924   8.1972   8.2135
     8.2408   8.2647   8.2769   8.2979   8.3293   8.3493   8.3595   8.3614
     8.4061   8.4063   8.4152   8.4199   8.4213   8.4239   8.4533   8.4653
     8.5149   8.5163   8.5506   8.5854   8.5960   8.6485   8.6487   8.6700
     8.6835   8.7137   8.7453   8.7752   8.7832   8.7881   8.7920   8.8060
     8.8539   8.9184   8.9271   8.9280   8.9467   8.9507   8.9664   8.9783
     9.0090   9.0219   9.0402   9.0558   9.0636   9.1041   9.1284   9.1463
     9.1964   9.2262   9.2311   9.2504   9.2563   9.2727   9.2776   9.2890
     9.2967   9.2984   9.3119   9.3145   9.3530   9.3896   9.4609   9.4962
     9.5702   9.5761   9.5884   9.6440   9.6611   9.6859   9.6972   9.7012
     9.7174   9.7302   9.7557   9.7598   9.7803   9.7876   9.8240   9.8305
     9.8605   9.8687   9.8717   9.8788   9.9041   9.9108   9.9360   9.9775
     9.9942   9.9978  10.0039  10.0743  10.0744  10.0900  10.1999  10.2070
    10.2243  10.2499  10.2528  10.2643  10.2981  10.3142  10.3641  10.3936
    10.4598  10.4661  10.5293  10.5445  10.5520  10.5644  10.5918  10.6434
    10.6510  10.6741  10.6808  10.7058  10.7283  10.7564  10.7871  10.7896
    10.8568  10.8655  10.8916  10.9348  10.9388  10.9820  10.9853  11.0331
    11.0497  11.0636  11.0765  11.0861  11.1308  11.1348  11.1449  11.1945
    11.2181  11.2267  11.2293  11.2358  11.2424  11.2590  11.2642  11.2741
    11.2822  11.2964  11.3280  11.3375  11.3418  11.3823  11.3896  11.4436
    11.4509  11.4667  11.4823  11.5487  11.5721  11.6062  11.6596  11.6620
    11.6654  11.7216  11.7283  11.7565  11.7791  11.8062  11.8211  11.8309
    11.8564  11.8825  11.8984  11.9042  11.9312  11.9530  11.9857  12.0007
    12.0115  12.0479  12.0587  12.0632  12.0967  12.1032  12.1127  12.1261
    12.2160  12.2254  12.2555  12.2786  12.3036  12.3150  12.3199  12.3380
    12.3470  12.3561  12.3720  12.3800  12.4092  12.4489  12.4557  12.5246
    12.5405  12.5509  12.5923  12.6017  12.6090  12.6160  12.6197  12.6219
    12.6451  12.6533  12.7046  12.7298  12.7414  12.7434  12.7650  12.7790
    12.7891  12.8210  12.8466  12.8496  12.8733  12.8748  12.8884  12.8934
    12.9050  12.9361  13.0225  13.0226  13.0521  13.0718  13.0810  13.0936
    13.0961  13.1005  13.1578  13.1679  13.1795  13.2040  13.2151  13.2275
    13.2443  13.2493  13.2596  13.2840  13.2842  13.2950  13.3196  13.3232
    13.3387  13.3790  13.3836  13.4404  13.4463  13.4619  13.4632  13.4640
    13.4673  13.4685  13.4717  13.4915  13.5041  13.5235  13.5273  13.5777
    13.6556  13.6622  13.6761  13.6821  13.6884  13.7254  13.7599  13.7659
    13.8097  13.8175  13.8226  13.8264  13.8357  13.8431  13.8830  13.8846
    13.8895  13.8961  13.9142  13.9333  13.9336  13.9392  13.9526  13.9577
    13.9603  13.9951  13.9952  14.0012  14.0078  14.0275  14.0490  14.0698
    14.0903  14.1009  14.1118  14.1277  14.1446  14.1627  14.1704  14.1717
    14.2009  14.2034  14.2310  14.2432  14.2710  14.2788  14.2823  14.3234
    14.3392  14.3703  14.3738  14.4017  14.4034  14.4102  14.4230  14.4232
    14.4276  14.5055  14.5482  14.5561  14.5573

          k = 0.0833-0.2887 0.0000 (220268 PWs)   bands (ev):

    -0.7122  -0.7122  -0.3721  -0.3721   0.1226   0.1226   0.1366   0.1366
     0.3332   0.3332   0.4500   0.4500   0.6378   0.6378   0.6973   0.6973
     0.6987   0.6987   0.9045   0.9045   0.9787   0.9787   1.0131   1.0131
     1.0802   1.0802   1.2201   1.2201   1.2410   1.2410   1.2639   1.2639
     1.3072   1.3072   1.3799   1.3799   1.4288   1.4288   1.4719   1.4719
     1.5338   1.5338   1.5449   1.5449   1.6001   1.6001   1.6052   1.6052
     1.6099   1.6099   1.6497   1.6497   1.6504   1.6504   1.6609   1.6609
     1.6965   1.6965   1.7607   1.7607   1.7918   1.7918   1.8464   1.8464
     1.8612   1.8612   1.8865   1.8865   1.8971   1.8971   1.9034   1.9034
     1.9191   1.9191   1.9250   1.9250   1.9443   1.9443   1.9943   1.9943
     2.0364   2.0364   2.0410   2.0410   2.0572   2.0572   2.0650   2.0650
     2.0785   2.0785   2.0841   2.0841   2.0852   2.0852   2.0992   2.0992
     2.1138   2.1138   2.1519   2.1519   2.1678   2.1678   2.1708   2.1708
     2.1737   2.1737   2.1753   2.1753   2.1758   2.1758   2.1996   2.1996
     2.2056   2.2056   2.2132   2.2132   2.2503   2.2503   2.2536   2.2536
     2.2538   2.2538   2.2572   2.2572   2.2714   2.2714   2.2721   2.2721
     2.2769   2.2769   2.2862   2.2862   2.2876   2.2876   2.2883   2.2883
     2.2973   2.2973   2.3060   2.3060   2.3122   2.3122   2.3236   2.3236
     2.3271   2.3271   2.3384   2.3384   2.3590   2.3590   2.3593   2.3593
     2.3611   2.3611   2.3624   2.3624   2.3682   2.3682   2.4026   2.4026
     2.4144   2.4144   2.4227   2.4227   2.4252   2.4252   2.4335   2.4335
     2.4502   2.4502   2.4613   2.4613   2.4685   2.4685   2.4713   2.4713
     2.4806   2.4806   2.4860   2.4860   2.4946   2.4946   2.4995   2.4995
     2.4996   2.4996   2.5019   2.5019   2.5087   2.5087   2.5180   2.5180
     2.5194   2.5194   2.5439   2.5439   2.5454   2.5454   2.5547   2.5547
     2.5681   2.5681   2.5732   2.5732   2.5878   2.5878   2.5948   2.5948
     2.5973   2.5973   2.6219   2.6219   2.6429   2.6429   2.6488   2.6488
     2.6593   2.6593   2.6746   2.6746   2.6771   2.6771   2.6810   2.6810
     2.6925   2.6925   2.6944   2.6944   2.6953   2.6953   2.7018   2.7018
     2.7021   2.7021   2.7049   2.7049   2.7113   2.7113   2.7226   2.7226
     2.7231   2.7231   2.7432   2.7432   2.7598   2.7598   2.7747   2.7747
     2.7761   2.7761   2.7801   2.7801   2.7972   2.7972   2.8035   2.8035
     2.8073   2.8073   2.8114   2.8114   2.8195   2.8195   2.8324   2.8324
     2.8377   2.8377   2.8537   2.8537   2.8595   2.8595   2.8695   2.8695
     2.8704   2.8704   2.8873   2.8873   2.8924   2.8924   2.9246   2.9246
     2.9299   2.9299   2.9322   2.9322   2.9382   2.9382   2.9462   2.9462
     2.9789   2.9789   2.9960   2.9960   3.0051   3.0051   3.0104   3.0104
     3.0142   3.0142   3.0355   3.0355   3.0410   3.0410   3.0691   3.0691
     3.0795   3.0795   3.0822   3.0822   3.0826   3.0826   3.0843   3.0843
     3.0888   3.0888   3.1043   3.1043   3.1257   3.1257   3.1302   3.1302
     3.1368   3.1368   3.1415   3.1415   3.1602   3.1602   3.1626   3.1626
     3.1782   3.1782   3.1824   3.1824   3.2005   3.2005   3.2245   3.2245
     3.2319   3.2319   3.2376   3.2376   3.2392   3.2392   3.2421   3.2421
     3.2486   3.2486   3.2675   3.2675   3.2680   3.2680   3.2739   3.2739
     3.2740   3.2740   3.2745   3.2745   3.2914   3.2914   3.3071   3.3071
     3.3115   3.3115   3.3143   3.3143   3.3281   3.3281   3.3343   3.3343
     3.3391   3.3391   3.3399   3.3399   3.3499   3.3499   3.3538   3.3538
     3.3602   3.3602   3.3673   3.3673   3.3743   3.3743   3.3839   3.3839
     3.3845   3.3845   3.4095   3.4095   3.4119   3.4119   3.4217   3.4217
     3.4237   3.4237   3.4347   3.4347   3.4394   3.4394   3.4519   3.4519
     3.4607   3.4607   3.4616   3.4616   3.4698   3.4698   3.4763   3.4763
     3.4792   3.4792   3.4836   3.4836   3.4958   3.4958   3.5018   3.5018
     3.5086   3.5086   3.5155   3.5155   3.5241   3.5241   3.5315   3.5315
     3.5335   3.5335   3.5472   3.5472   3.5493   3.5493   3.5511   3.5511
     3.5556   3.5556   3.5559   3.5559   3.5684   3.5684   3.5842   3.5842
     3.5877   3.5877   3.5886   3.5886   3.6150   3.6150   3.6159   3.6159
     3.6199   3.6199   3.6220   3.6220   3.6229   3.6229   3.6272   3.6272
     3.6411   3.6411   3.6485   3.6485   3.6610   3.6610   3.6749   3.6749
     3.6778   3.6778   3.6853   3.6853   3.6858   3.6858   3.6913   3.6913
     3.6997   3.6997   3.7020   3.7020   3.7077   3.7077   3.7080   3.7080
     3.7384   3.7384   3.7495   3.7495   3.7510   3.7510   3.7626   3.7626
     3.7648   3.7648   3.7669   3.7669   3.7706   3.7706   3.7707   3.7707
     3.7794   3.7794   3.7862   3.7862   3.7914   3.7914   3.8156   3.8156
     3.8158   3.8158   3.8361   3.8361   3.8387   3.8387   3.8464   3.8464
     3.8506   3.8506   3.8535   3.8535   3.8622   3.8622   3.8647   3.8647
     3.8700   3.8700   3.8762   3.8762   3.8922   3.8922   3.8973   3.8973
     3.9037   3.9037   3.9095   3.9095   3.9111   3.9111   3.9125   3.9125
     3.9148   3.9148   3.9278   3.9278   3.9386   3.9386   3.9442   3.9442
     3.9443   3.9443   3.9450   3.9450   3.9452   3.9452   3.9479   3.9479
     3.9550   3.9550   3.9589   3.9589   3.9654   3.9654   3.9763   3.9763
     3.9775   3.9775   3.9821   3.9821   3.9936   3.9936   3.9946   3.9946
     3.9987   3.9987   4.0006   4.0006   4.0081   4.0081   4.0219   4.0219
     4.0219   4.0219   4.0247   4.0247   4.0251   4.0251   4.0265   4.0265
     4.0547   4.0547   4.0560   4.0560   4.0628   4.0628   4.0669   4.0669
     4.0722   4.0722   4.0727   4.0727   4.0734   4.0734   4.0745   4.0745
     4.0819   4.0819   4.0849   4.0849   4.1083   4.1083   4.1113   4.1113
     4.1157   4.1157   4.1157   4.1157   4.1222   4.1222   4.1351   4.1351
     4.1396   4.1396   4.1400   4.1400   4.1454   4.1454   4.1462   4.1462
     4.1462   4.1462   4.1478   4.1478   4.1516   4.1516   4.1607   4.1607
     4.1687   4.1687   4.1738   4.1738   4.1761   4.1761   4.1778   4.1778
     4.1811   4.1811   4.1853   4.1853   4.1872   4.1873   4.1913   4.1913
     4.1945   4.1945   4.1973   4.1973   4.1980   4.1980   4.2030   4.2030
     4.2062   4.2062   4.2130   4.2130   4.2163   4.2163   4.2187   4.2187
     4.2219   4.2219   4.2228   4.2228   4.2237   4.2237   4.2260   4.2260
     4.2260   4.2260   4.2289   4.2289   4.2317   4.2317   4.2326   4.2326
     4.2457   4.2457   4.2463   4.2463   4.2668   4.2668   4.2686   4.2686
     4.2715   4.2715   4.2763   4.2763   4.2776   4.2776   4.2825   4.2825
     4.2879   4.2879   4.2984   4.2984   4.2986   4.2986   4.3033   4.3033
     4.3077   4.3077   4.3105   4.3105   4.3178   4.3178   4.3228   4.3228
     4.3270   4.3270   4.3304   4.3304   4.3445   4.3445   4.3490   4.3490
     4.3506   4.3506   4.3603   4.3603   4.3688   4.3688   4.3699   4.3699
     4.3783   4.3783   4.3804   4.3804   4.3804   4.3804   4.3886   4.3886
     4.3985   4.3985   4.4044   4.4044   4.4188   4.4188   4.4231   4.4231
     4.4238   4.4238   4.4319   4.4319   4.4332   4.4332   4.4537   4.4537
     4.4575   4.4575   4.4609   4.4609   4.4622   4.4622   4.4642   4.4642
     4.4659   4.4659   4.4718   4.4718   4.4881   4.4881   4.4931   4.4931
     4.4934   4.4934   4.4945   4.4945   4.5052   4.5052   4.5211   4.5211
     4.5234   4.5234   4.5335   4.5335   4.5394   4.5394   4.5488   4.5488
     4.5568   4.5568   4.5755   4.5755   4.5776   4.5776   4.5801   4.5801
     4.5837   4.5837   4.5905   4.5905   4.5984   4.5984   4.5984   4.5984
     4.6013   4.6013   4.6125   4.6125   4.6136   4.6136   4.6306   4.6306
     4.6408   4.6408   4.6535   4.6535   4.6545   4.6545   4.6599   4.6599
     4.6646   4.6646   4.6703   4.6703   4.6770   4.6770   4.6838   4.6838
     4.6892   4.6892   4.6983   4.6983   4.7062   4.7062   4.7063   4.7063
     4.7096   4.7096   4.7169   4.7169   4.7193   4.7193   4.7418   4.7418
     4.7477   4.7477   4.7589   4.7589   4.7696   4.7696   4.7757   4.7757
     4.7950   4.7950   4.8045   4.8045   4.8208   4.8208   4.8262   4.8262
     4.8296   4.8296   4.8332   4.8332   4.8450   4.8450   4.8507   4.8507
     4.8595   4.8595   4.8597   4.8597   4.8662   4.8662   4.8664   4.8664
     4.8749   4.8749   4.8757   4.8757   4.8959   4.8959   4.8994   4.8994
     4.9085   4.9085   4.9184   4.9184   4.9256   4.9256   4.9264   4.9264
     4.9275   4.9275   4.9463   4.9463   4.9466   4.9466   4.9485   4.9485
     4.9632   4.9632   4.9655   4.9655   4.9663   4.9663   4.9750   4.9750
     4.9817   4.9817   4.9848   4.9848   4.9864   4.9864   4.9892   4.9892
     4.9924   4.9924   4.9992   4.9992   5.0060   5.0060   5.0079   5.0079
     5.0120   5.0120   5.0272   5.0272   5.0292   5.0292   5.0354   5.0354
     5.0418   5.0418   5.0477   5.0477   5.0519   5.0519   5.0658   5.0658
     5.0719   5.0719   5.0839   5.0839   5.0934   5.0934   5.0983   5.0983
     5.0992   5.0992   5.1150   5.1150   5.1157   5.1157   5.1167   5.1167
     5.1295   5.1295   5.1303   5.1303   5.1354   5.1354   5.1463   5.1463
     5.1481   5.1481   5.1488   5.1488   5.1583   5.1583   5.1717   5.1717
     5.1823   5.1823   5.1941   5.1941   5.1953   5.1953   5.2013   5.2013
     5.2023   5.2023   5.2106   5.2106   5.2200   5.2200   5.2236   5.2236
     5.2264   5.2264   5.2340   5.2340   5.2385   5.2385   5.2418   5.2418
     5.2457   5.2457   5.2516   5.2516   5.2523   5.2523   5.2544   5.2544
     5.2573   5.2573   5.2609   5.2609   5.2794   5.2794   5.2833   5.2833
     5.2912   5.2912   5.3124   5.3124   5.3204   5.3204   5.3212   5.3212
     5.3243   5.3243   5.3283   5.3283   5.3303   5.3303   5.3401   5.3401
     5.3460   5.3460   5.3467   5.3467   5.3469   5.3469   5.3553   5.3553
     5.3596   5.3596   5.3614   5.3614   5.3709   5.3709   5.3782   5.3782
     5.3868   5.3868   5.3927   5.3927   5.3967   5.3967   5.4082   5.4082
     5.4098   5.4098   5.4121   5.4121   5.4192   5.4192   5.4258   5.4258
     5.4269   5.4269   5.4286   5.4286   5.4287   5.4287   5.4371   5.4371
     5.4375   5.4375   5.4490   5.4490   5.4490   5.4490   5.4540   5.4540
     5.4706   5.4706   5.4771   5.4771   5.4804   5.4804   5.4822   5.4822
     5.4941   5.4941   5.4958   5.4958   5.4977   5.4977   5.5076   5.5076
     5.5093   5.5093   5.5097   5.5097   5.5210   5.5210   5.5264   5.5264
     5.5355   5.5355   5.5378   5.5378   5.5457   5.5457   5.5499   5.5499
     5.5522   5.5522   5.5535   5.5535   5.5747   5.5747   5.5792   5.5792
     5.5814   5.5814   5.5847   5.5847   5.5885   5.5885   5.5928   5.5928
     5.5984   5.5984   5.6043   5.6043   5.6071   5.6071   5.6082   5.6082
     5.6128   5.6128   5.6216   5.6216   5.6317   5.6317   5.6324   5.6324
     5.6365   5.6365   5.6380   5.6380   5.6432   5.6432   5.6510   5.6510
     5.6648   5.6648   5.6677   5.6677   5.6710   5.6710   5.6742   5.6742
     5.6911   5.6911   5.6936   5.6936   5.6942   5.6942   5.7055   5.7055
     5.7142   5.7142   5.7215   5.7215   5.7283   5.7283   5.7294   5.7294
     5.7355   5.7355   5.7450   5.7450   5.7455   5.7455   5.7675   5.7675
     5.7681   5.7681   5.7721   5.7721   5.7736   5.7736   5.7739   5.7739
     5.7856   5.7856   5.7898   5.7898   5.7913   5.7913   5.7967   5.7967
     5.7996   5.7996   5.8190   5.8190   5.8217   5.8217   5.8344   5.8344
     5.8356   5.8356   5.8586   5.8586   5.8639   5.8639   5.8688   5.8688
     5.8717   5.8717   5.8779   5.8779   5.8975   5.8975   5.9034   5.9034
     5.9070   5.9070   5.9138   5.9138   5.9138   5.9138   5.9255   5.9255
     5.9279   5.9279   5.9432   5.9432   5.9436   5.9436   5.9463   5.9463
     5.9476   5.9476   5.9478   5.9478   5.9555   5.9555   5.9721   5.9721
     5.9748   5.9748   5.9821   5.9821   5.9821   5.9821   5.9822   5.9822
     5.9840   5.9840   6.0102   6.0102   6.0163   6.0163   6.0198   6.0198
     6.0235   6.0235   6.0246   6.0246   6.0274   6.0275   6.0297   6.0297
     6.0326   6.0326   6.0377   6.0377   6.0594   6.0594   6.0714   6.0714
     6.0918   6.0918   6.1037   6.1037   6.1080   6.1080   6.1089   6.1089
     6.1129   6.1129   6.1182   6.1182   6.1240   6.1240   6.1251   6.1251
     6.1269   6.1269   6.1344   6.1344   6.1452   6.1452   6.1464   6.1464
     6.1502   6.1502   6.1563   6.1563   6.1590   6.1590   6.1596   6.1596
     6.1621   6.1621   6.1740   6.1740   6.1763   6.1763   6.1902   6.1902
     6.1936   6.1936   6.2047   6.2047   6.2050   6.2050   6.2050   6.2050
     6.2079   6.2079   6.2107   6.2107   6.2145   6.2145   6.2162   6.2162
     6.2234   6.2234   6.2277   6.2277   6.2343   6.2343   6.2360   6.2360
     6.2503   6.2503   6.2538   6.2538   6.2563   6.2563   6.2599   6.2599
     6.2715   6.2715   6.2750   6.2750   6.2755   6.2755   6.2757   6.2757
     6.2816   6.2816   6.2831   6.2831   6.2863   6.2863   6.2937   6.2937
     6.2969   6.2969   6.2971   6.2971   6.3002   6.3002   6.3009   6.3009
     6.3143   6.3143   6.3143   6.3143   6.3195   6.3195   6.3209   6.3209
     6.3223   6.3223   6.3272   6.3272   6.3341   6.3341   6.3425   6.3425
     6.3542   6.3542   6.3571   6.3571   6.3621   6.3621   6.3647   6.3647
     6.3662   6.3662   6.3759   6.3759   6.3788   6.3788   6.3837   6.3837
     6.3890   6.3890   6.3893   6.3893   6.3906   6.3906   6.3929   6.3929
     6.3945   6.3945   6.4001   6.4001   6.4002   6.4002   6.4264   6.4264
     6.4354   6.4354   6.4469   6.4469   6.4492   6.4492   6.4536   6.4536
     6.4539   6.4539   6.4582   6.4582   6.4600   6.4600   6.4613   6.4613
     6.4640   6.4640   6.4652   6.4652   6.4808   6.4808   6.4872   6.4872
     6.4890   6.4890   6.4932   6.4932   6.4982   6.4982   6.5048   6.5048
     6.5167   6.5167   6.5401   6.5401   6.5417   6.5417   6.5431   6.5431
     6.5431   6.5431   6.5490   6.5490   6.5640   6.5640   6.5644   6.5644
     6.5677   6.5677   6.5865   6.5865   6.5881   6.5881   6.5969   6.5969
     6.5993   6.5993   6.5993   6.5993   6.6021   6.6021   6.6022   6.6023
     6.6068   6.6068   6.6190   6.6190   6.6266   6.6266   6.6271   6.6271
     6.6297   6.6297   6.6424   6.6424   6.7172   6.7172   6.7182   6.7182
     6.7250   6.7250   6.7424   6.7424   6.7444   6.7444   6.7963   6.7963
     6.8300   6.8300   6.8479   6.8479   6.8541   6.8541   6.8745   6.8745
     6.8773   6.8773   6.9105   6.9105   6.9106   6.9106   6.9659   6.9659
     6.9992   6.9992   7.0640   7.0640   7.0846   7.0846   7.1194   7.1194
     7.1488   7.1488   7.2420   7.2420   7.3239   7.3239   7.3244   7.3244
     7.3414   7.3414   7.4300   7.4300   7.4629   7.4629   7.4846   7.4846
     7.5134   7.5134   7.5676   7.5676   7.5804   7.5804   7.6162   7.6162
     7.6594   7.6594   7.7311   7.7311   7.7837   7.7837   7.7875   7.7875
     7.7930   7.7930   7.8220   7.8220   7.9866   7.9866   8.0152   8.0152
     8.0368   8.0368   8.0830   8.0830   8.1139   8.1139   8.2064   8.2064
     8.2146   8.2146   8.2356   8.2356   8.2560   8.2560   8.2941   8.2941
     8.2998   8.2998   8.4392   8.4392   8.4528   8.4528   8.4791   8.4791
     8.5081   8.5081   8.5499   8.5499   8.6560   8.6560   8.6805   8.6805
     8.7581   8.7581   8.7939   8.7939   8.7953   8.7953   8.8000   8.8000
     8.9360   8.9360   8.9602   8.9602   9.0337   9.0337   9.0368   9.0368
     9.0777   9.0777   9.0921   9.0921   9.1197   9.1197   9.1199   9.1199
     9.1523   9.1523   9.1736   9.1736   9.2182   9.2182   9.2660   9.2660
     9.2792   9.2792   9.4276   9.4276   9.4349   9.4349   9.4445   9.4445
     9.4480   9.4480   9.4829   9.4829   9.6588   9.6588   9.7074   9.7074
     9.7080   9.7080   9.7104   9.7104   9.7677   9.7677   9.7772   9.7772
     9.8410   9.8410   9.9047   9.9047   9.9556   9.9556   9.9825   9.9825
    10.0121  10.0121  10.0861  10.0861  10.1377  10.1377  10.1753  10.1753
    10.2302  10.2302  10.3584  10.3584  10.4071  10.4071  10.4493  10.4493
    10.4914  10.4914  10.5417  10.5417  10.6179  10.6179  10.6335  10.6335
    10.6516  10.6516  10.6522  10.6522  10.6634  10.6634  10.7169  10.7169
    10.9127  10.9127  10.9774  10.9774  11.0145  11.0145  11.0273  11.0273
    11.1101  11.1101  11.1340  11.1340  11.2090  11.2090  11.2247  11.2247
    11.2604  11.2604  11.3006  11.3006  11.3088  11.3088  11.3202  11.3202
    11.3339  11.3339  11.3795  11.3795  11.4414  11.4414  11.4990  11.4990
    11.5258  11.5258  11.5990  11.5990  11.6091  11.6091  11.6358  11.6358
    11.6928  11.6928  11.7603  11.7603  11.7671  11.7671  11.7722  11.7722
    11.8429  11.8429  11.8433  11.8433  11.8740  11.8740  12.0151  12.0151
    12.0287  12.0287  12.0816  12.0816  12.0884  12.0884  12.0925  12.0925
    12.0991  12.0991  12.1875  12.1875  12.2302  12.2302  12.2588  12.2588
    12.2953  12.2953  12.3867  12.3867  12.4260  12.4260  12.4475  12.4475
    12.4922  12.4922  12.5341  12.5341  12.5528  12.5528  12.5787  12.5787
    12.5808  12.5808  12.6146  12.6146  12.6667  12.6667  12.7281  12.7281
    12.7649  12.7649  12.7786  12.7786  12.8317  12.8317  12.9112  12.9112
    12.9157  12.9157  12.9244  12.9244  12.9505  12.9505  13.0058  13.0058
    13.0218  13.0218  13.1167  13.1167  13.1305  13.1305  13.1928  13.1928
    13.2288  13.2288  13.2741  13.2741  13.2776  13.2776  13.3039  13.3039
    13.3263  13.3263  13.4001  13.4001  13.4213  13.4213  13.4307  13.4307
    13.4391  13.4391  13.4526  13.4526  13.5581  13.5581  13.6138  13.6138
    13.6182  13.6182  13.6328  13.6328  13.6488  13.6488  13.6769  13.6769
    13.7156  13.7156  13.7428  13.7428  13.7513  13.7513  13.7994  13.7994
    13.8659  13.8660  13.8985  13.8985  14.0072  14.0072  14.0115  14.0115
    14.0386  14.0386  14.0512  14.0512  14.1031  14.1031  14.1162  14.1162
    14.1444  14.1444  14.1895  14.1895  14.2000  14.2000  14.2197  14.2197
    14.2505  14.2505  14.2541  14.2542  14.3440  14.3440  14.3935  14.3935
    14.4557  14.4562  14.4676  14.4676  14.5070  14.5070  14.5084  14.5084
    14.6115  14.6115  14.6265  14.6308  14.6308

          k = 0.2500 0.0962 0.0000 (220225 PWs)   bands (ev):

    -0.7372  -0.4406  -0.3967  -0.1549  -0.1061  -0.0847   0.0988   0.1713
     0.1798   0.2399   0.3815   0.4365   0.4919   0.6178   0.6469   0.6742
     0.7139   0.7344   0.9016   0.9457   0.9505   1.0348   1.0430   1.1485
     1.1544   1.1651   1.1978   1.2038   1.2655   1.2719   1.2808   1.2943
     1.3081   1.3872   1.3916   1.4699   1.4778   1.4963   1.5128   1.5596
     1.5749   1.5861   1.6011   1.6171   1.6296   1.6347   1.6490   1.6503
     1.6524   1.6687   1.6767   1.6799   1.7011   1.7086   1.7200   1.7420
     1.7711   1.7732   1.7828   1.7841   1.7874   1.7997   1.8188   1.8191
     1.8489   1.8668   1.8749   1.8782   1.8936   1.8996   1.9017   1.9138
     1.9188   1.9254   1.9257   1.9640   1.9816   1.9843   2.0013   2.0014
     2.0122   2.0128   2.0165   2.0199   2.0350   2.0356   2.0455   2.0479
     2.0638   2.0689   2.0731   2.0743   2.0791   2.0923   2.1039   2.1064
     2.1073   2.1109   2.1174   2.1238   2.1250   2.1307   2.1390   2.1459
     2.1481   2.1538   2.1538   2.1546   2.1584   2.1597   2.1605   2.1633
     2.1651   2.1707   2.1811   2.1913   2.1930   2.2023   2.2041   2.2085
     2.2132   2.2156   2.2209   2.2211   2.2287   2.2300   2.2415   2.2443
     2.2483   2.2684   2.2786   2.2801   2.2804   2.2810   2.2834   2.2860
     2.2883   2.2889   2.2920   2.2942   2.2967   2.3010   2.3047   2.3110
     2.3162   2.3278   2.3413   2.3423   2.3425   2.3456   2.3516   2.3517
     2.3562   2.3624   2.3667   2.3730   2.3735   2.3863   2.3875   2.3885
     2.3889   2.4042   2.4081   2.4083   2.4121   2.4141   2.4177   2.4277
     2.4322   2.4338   2.4361   2.4403   2.4492   2.4520   2.4554   2.4580
     2.4591   2.4699   2.4724   2.4734   2.4802   2.4815   2.4923   2.4929
     2.4966   2.5015   2.5060   2.5076   2.5108   2.5225   2.5233   2.5340
     2.5377   2.5388   2.5417   2.5465   2.5472   2.5507   2.5719   2.5780
     2.5816   2.5873   2.5896   2.5896   2.5900   2.5906   2.5947   2.5970
     2.5972   2.5986   2.6015   2.6202   2.6242   2.6295   2.6332   2.6378
     2.6393   2.6409   2.6478   2.6484   2.6626   2.6631   2.6632   2.6679
     2.6756   2.6764   2.6785   2.6848   2.6855   2.6937   2.6955   2.7062
     2.7098   2.7122   2.7157   2.7200   2.7209   2.7222   2.7238   2.7238
     2.7323   2.7329   2.7332   2.7396   2.7506   2.7516   2.7523   2.7531
     2.7623   2.7626   2.7773   2.7859   2.7888   2.7896   2.7928   2.7934
     2.7937   2.8030   2.8040   2.8117   2.8250   2.8260   2.8306   2.8312
     2.8322   2.8480   2.8610   2.8637   2.8651   2.8651   2.8659   2.8672
     2.8786   2.8857   2.8937   2.8952   2.8979   2.8996   2.9005   2.9053
     2.9060   2.9154   2.9191   2.9192   2.9229   2.9235   2.9330   2.9372
     2.9482   2.9515   2.9522   2.9698   2.9764   2.9845   2.9913   2.9916
     2.9946   3.0025   3.0086   3.0185   3.0230   3.0232   3.0251   3.0294
     3.0343   3.0441   3.0606   3.0639   3.0731   3.0745   3.0752   3.0847
     3.0915   3.1064   3.1098   3.1112   3.1113   3.1140   3.1230   3.1269
     3.1436   3.1446   3.1539   3.1626   3.1680   3.1691   3.1693   3.1707
     3.1760   3.1772   3.1786   3.1790   3.1879   3.1887   3.1941   3.1955
     3.1959   3.2072   3.2209   3.2220   3.2238   3.2248   3.2294   3.2306
     3.2327   3.2427   3.2436   3.2544   3.2576   3.2594   3.2597   3.2738
     3.2837   3.2872   3.2933   3.2958   3.2958   3.2989   3.2993   3.3045
     3.3059   3.3062   3.3098   3.3186   3.3239   3.3243   3.3244   3.3288
     3.3290   3.3294   3.3323   3.3382   3.3393   3.3466   3.3479   3.3480
     3.3513   3.3577   3.3595   3.3596   3.3629   3.3673   3.3720   3.3795
     3.3833   3.3858   3.3858   3.3883   3.3901   3.3983   3.4079   3.4113
     3.4116   3.4133   3.4144   3.4165   3.4366   3.4375   3.4376   3.4425
     3.4468   3.4472   3.4516   3.4519   3.4592   3.4623   3.4693   3.4703
     3.4710   3.4730   3.4782   3.4804   3.4854   3.4856   3.4891   3.4911
     3.5041   3.5048   3.5052   3.5070   3.5223   3.5223   3.5240   3.5312
     3.5334   3.5341   3.5374   3.5394   3.5487   3.5526   3.5528   3.5530
     3.5592   3.5613   3.5625   3.5647   3.5677   3.5776   3.5864   3.5890
     3.5923   3.5963   3.5970   3.5982   3.5997   3.6022   3.6086   3.6089
     3.6103   3.6110   3.6134   3.6172   3.6174   3.6214   3.6243   3.6291
     3.6306   3.6441   3.6496   3.6513   3.6545   3.6588   3.6612   3.6687
     3.6702   3.6737   3.6737   3.6838   3.6918   3.6932   3.6970   3.7051
     3.7059   3.7101   3.7138   3.7154   3.7161   3.7175   3.7215   3.7227
     3.7227   3.7246   3.7295   3.7350   3.7369   3.7467   3.7480   3.7592
     3.7634   3.7661   3.7744   3.7751   3.7776   3.7778   3.7921   3.7955
     3.8029   3.8086   3.8098   3.8127   3.8145   3.8155   3.8177   3.8271
     3.8287   3.8314   3.8375   3.8380   3.8390   3.8414   3.8415   3.8470
     3.8500   3.8542   3.8568   3.8589   3.8598   3.8618   3.8621   3.8635
     3.8701   3.8711   3.8754   3.8800   3.8802   3.8812   3.8816   3.8836
     3.8853   3.8922   3.8936   3.8954   3.8983   3.8999   3.9088   3.9142
     3.9184   3.9308   3.9331   3.9337   3.9342   3.9345   3.9346   3.9349
     3.9355   3.9449   3.9520   3.9532   3.9544   3.9557   3.9574   3.9580
     3.9627   3.9661   3.9724   3.9724   3.9742   3.9743   3.9757   3.9761
     3.9765   3.9806   3.9817   3.9832   3.9838   3.9897   3.9929   3.9973
     3.9978   4.0020   4.0052   4.0098   4.0103   4.0115   4.0187   4.0233
     4.0302   4.0306   4.0324   4.0332   4.0334   4.0339   4.0358   4.0458
     4.0520   4.0543   4.0562   4.0582   4.0634   4.0640   4.0660   4.0663
     4.0727   4.0745   4.0745   4.0780   4.0783   4.0807   4.0811   4.0813
     4.0826   4.0920   4.0927   4.0956   4.0958   4.0961   4.0963   4.0972
     4.0988   4.1009   4.1017   4.1053   4.1062   4.1097   4.1104   4.1108
     4.1114   4.1139   4.1258   4.1282   4.1300   4.1321   4.1321   4.1375
     4.1379   4.1379   4.1483   4.1485   4.1500   4.1529   4.1538   4.1557
     4.1584   4.1609   4.1646   4.1683   4.1692   4.1747   4.1752   4.1781
     4.1813   4.1826   4.1832   4.1844   4.1860   4.1890   4.1910   4.1915
     4.1930   4.1936   4.1976   4.1985   4.1988   4.2004   4.2021   4.2036
     4.2054   4.2078   4.2081   4.2084   4.2085   4.2120   4.2185   4.2189
     4.2202   4.2222   4.2227   4.2241   4.2284   4.2287   4.2287   4.2298
     4.2311   4.2345   4.2367   4.2462   4.2472   4.2504   4.2508   4.2519
     4.2584   4.2647   4.2667   4.2697   4.2721   4.2730   4.2862   4.2908
     4.2918   4.2925   4.2933   4.2938   4.2963   4.2966   4.2983   4.2993
     4.3025   4.3030   4.3036   4.3040   4.3121   4.3121   4.3211   4.3215
     4.3228   4.3296   4.3304   4.3321   4.3329   4.3330   4.3407   4.3421
     4.3454   4.3512   4.3526   4.3541   4.3572   4.3577   4.3595   4.3622
     4.3649   4.3651   4.3673   4.3686   4.3763   4.3787   4.3837   4.3869
     4.3878   4.3934   4.3940   4.3963   4.3964   4.3981   4.4039   4.4058
     4.4062   4.4071   4.4126   4.4133   4.4216   4.4266   4.4274   4.4319
     4.4339   4.4355   4.4377   4.4398   4.4399   4.4437   4.4496   4.4509
     4.4528   4.4593   4.4609   4.4618   4.4648   4.4714   4.4752   4.4802
     4.4824   4.4899   4.4952   4.4978   4.4989   4.4992   4.5010   4.5037
     4.5130   4.5141   4.5178   4.5229   4.5241   4.5337   4.5339   4.5344
     4.5366   4.5407   4.5422   4.5424   4.5429   4.5478   4.5523   4.5552
     4.5556   4.5559   4.5609   4.5695   4.5758   4.5821   4.5828   4.5895
     4.5975   4.6008   4.6015   4.6044   4.6067   4.6097   4.6190   4.6207
     4.6214   4.6235   4.6271   4.6295   4.6340   4.6363   4.6383   4.6426
     4.6467   4.6477   4.6507   4.6524   4.6566   4.6621   4.6654   4.6737
     4.6753   4.6783   4.6794   4.6795   4.6850   4.6852   4.6877   4.6882
     4.6904   4.6925   4.6994   4.7012   4.7084   4.7122   4.7144   4.7161
     4.7167   4.7177   4.7230   4.7243   4.7267   4.7275   4.7303   4.7344
     4.7462   4.7483   4.7553   4.7568   4.7579   4.7613   4.7638   4.7675
     4.7704   4.7717   4.7861   4.7892   4.7893   4.7934   4.7959   4.7960
[...]
     atom   58 type  1   force =     0.00000000    0.00056231   -0.00384073
     atom   59 type  1   force =     0.00000214    0.00056236   -0.00384069
     atom   60 type  1   force =     0.00000000    0.00056295   -0.00383907
     atom   61 type  1   force =    -0.00000192   -0.00053516    0.00457974
     atom   62 type  1   force =    -0.00000195   -0.00053503    0.00457975
     atom   63 type  1   force =    -0.00000192   -0.00053501    0.00457959
     atom   64 type  1   force =    -0.00000179   -0.00053519    0.00457847
     atom   65 type  1   force =    -0.00000180   -0.00053503    0.00457851
     atom   66 type  1   force =     0.00000194   -0.00053513    0.00457952
     atom   67 type  1   force =     0.00000192   -0.00053516    0.00457974
     atom   68 type  1   force =     0.00000195   -0.00053503    0.00457975
     atom   69 type  1   force =     0.00000192   -0.00053501    0.00457959
     atom   70 type  1   force =    -0.00000214    0.00056248   -0.00384056
     atom   71 type  1   force =    -0.00000212    0.00056262   -0.00384068
     atom   72 type  1   force =     0.00000214    0.00056248   -0.00384056
     atom   73 type  1   force =     0.00000212    0.00056262   -0.00384068
     atom   74 type  1   force =     0.00000000    0.00056263   -0.00383901
     atom   75 type  1   force =     0.00000000    0.00056259   -0.00383890
     atom   76 type  1   force =     0.00000000    0.00056283   -0.00383899
     atom   77 type  1   force =    -0.00000180   -0.00053500    0.00457841
     atom   78 type  1   force =     0.00000179   -0.00053519    0.00457847
     atom   79 type  1   force =     0.00000180   -0.00053503    0.00457851
     atom   80 type  1   force =     0.00000180   -0.00053500    0.00457841
     atom   81 type  1   force =     0.00000192   -0.00045085   -0.00049525
     atom   82 type  1   force =     0.00000000    0.00028545   -0.00072714
     atom   83 type  1   force =    -0.00000227    0.00028635   -0.00072771
     atom   84 type  1   force =     0.00000000    0.00028679   -0.00072898
     atom   85 type  1   force =    -0.00000239   -0.00045134   -0.00049594
     atom   86 type  1   force =     0.00000000    0.00028534   -0.00072708
     atom   87 type  1   force =    -0.00000222    0.00028631   -0.00072777
     atom   88 type  1   force =    -0.00000221    0.00028625   -0.00072770
     atom   89 type  1   force =     0.00000000    0.00028659   -0.00072910
     atom   90 type  1   force =     0.00000222    0.00028631   -0.00072777
     atom   91 type  1   force =    -0.00000236   -0.00045142   -0.00049586
     atom   92 type  1   force =    -0.00000192   -0.00045085   -0.00049525
     atom   93 type  1   force =    -0.00000194   -0.00045097   -0.00049529
     atom   94 type  1   force =     0.00000194   -0.00045097   -0.00049529
     atom   95 type  1   force =     0.00000239   -0.00045134   -0.00049594
     atom   96 type  1   force =     0.00000000    0.00028533   -0.00072716
     atom   97 type  1   force =    -0.00000228    0.00028633   -0.00072768
     atom   98 type  1   force =     0.00000000    0.00028670   -0.00072899
     atom   99 type  1   force =     0.00000227    0.00028635   -0.00072771
     atom  100 type  1   force =     0.00000228    0.00028633   -0.00072768
     atom  101 type  1   force =    -0.00000238   -0.00045144   -0.00049580
     atom  102 type  1   force =    -0.00000236   -0.00045136   -0.00049584
     atom  103 type  1   force =    -0.00000192   -0.00045095   -0.00049519
     atom  104 type  1   force =    -0.00000194   -0.00045087   -0.00049521
     atom  105 type  1   force =     0.00000192   -0.00045095   -0.00049519
     atom  106 type  1   force =     0.00000236   -0.00045142   -0.00049586
     atom  107 type  1   force =     0.00000238   -0.00045144   -0.00049580
     atom  108 type  1   force =     0.00000000    0.00028538   -0.00072708
     atom  109 type  1   force =     0.00000000    0.00028662   -0.00072901
     atom  110 type  1   force =     0.00000221    0.00028625   -0.00072770
     atom  111 type  1   force =     0.00000194   -0.00045087   -0.00049521
     atom  112 type  1   force =     0.00000236   -0.00045136   -0.00049584
     atom  113 type  1   force =    -0.00000135   -0.00018595    0.00041817
     atom  114 type  1   force =     0.00000132   -0.00018591    0.00041820
     atom  115 type  1   force =     0.00000000    0.00019607   -0.00055328
     atom  116 type  1   force =    -0.00000132   -0.00018591    0.00041820
     atom  117 type  1   force =    -0.00000151   -0.00018610    0.00041827
     atom  118 type  1   force =    -0.00000152   -0.00018623    0.00041829
     atom  119 type  1   force =     0.00000151   -0.00018610    0.00041827
     atom  120 type  1   force =    -0.00000240    0.00019684   -0.00055380
     atom  121 type  1   force =    -0.00000244    0.00019692   -0.00055374
     atom  122 type  1   force =     0.00000000    0.00019615   -0.00055323
     atom  123 type  1   force =     0.00000240    0.00019684   -0.00055380
     atom  124 type  1   force =     0.00000000    0.00019635   -0.00055450
     atom  125 type  1   force =    -0.00000136   -0.00018582    0.00041828
     atom  126 type  1   force =    -0.00000132   -0.00018581    0.00041823
     atom  127 type  1   force =    -0.00000155   -0.00018610    0.00041836
     atom  128 type  1   force =    -0.00000151   -0.00018604    0.00041834
     atom  129 type  1   force =     0.00000152   -0.00018623    0.00041829
     atom  130 type  1   force =     0.00000155   -0.00018610    0.00041836
     atom  131 type  1   force =     0.00000151   -0.00018604    0.00041834
     atom  132 type  1   force =     0.00000135   -0.00018595    0.00041817
     atom  133 type  1   force =     0.00000136   -0.00018582    0.00041828
     atom  134 type  1   force =     0.00000132   -0.00018581    0.00041823
     atom  135 type  1   force =    -0.00000244    0.00019685   -0.00055375
     atom  136 type  1   force =    -0.00000240    0.00019694   -0.00055380
     atom  137 type  1   force =     0.00000000    0.00019613   -0.00055322
     atom  138 type  1   force =     0.00000000    0.00019617   -0.00055325
     atom  139 type  1   force =     0.00000244    0.00019692   -0.00055374
     atom  140 type  1   force =     0.00000244    0.00019685   -0.00055375
     atom  141 type  1   force =     0.00000240    0.00019694   -0.00055380
     atom  142 type  1   force =     0.00000000    0.00019643   -0.00055451
     atom  143 type  1   force =     0.00000000    0.00019631   -0.00055445
     atom  144 type  1   force =     0.00000000    0.00019647   -0.00055451
     atom  145 type  1   force =    -0.00000245    0.00018758   -0.00042003
     atom  146 type  1   force =     0.00000000    0.00018719   -0.00042069
     atom  147 type  1   force =     0.00000245    0.00018758   -0.00042003
     atom  148 type  1   force =    -0.00000241   -0.00019596    0.00055235
     atom  149 type  1   force =    -0.00000178   -0.00019491    0.00055244
     atom  150 type  1   force =    -0.00000179   -0.00019491    0.00055245
     atom  151 type  1   force =    -0.00000247    0.00018749   -0.00042001
     atom  152 type  1   force =    -0.00000249    0.00018749   -0.00042005
     atom  153 type  1   force =    -0.00000245    0.00018751   -0.00042008
     atom  154 type  1   force =     0.00000000    0.00018711   -0.00042059
     atom  155 type  1   force =     0.00000000    0.00018710   -0.00042065
     atom  156 type  1   force =     0.00000000    0.00018717   -0.00042069
     atom  157 type  1   force =     0.00000247    0.00018749   -0.00042001
     atom  158 type  1   force =     0.00000249    0.00018749   -0.00042005
     atom  159 type  1   force =     0.00000245    0.00018751   -0.00042008
     atom  160 type  1   force =     0.00000000    0.00018819   -0.00042150
     atom  161 type  1   force =     0.00000000    0.00018809   -0.00042151
     atom  162 type  1   force =     0.00000000    0.00018807   -0.00042154
     atom  163 type  1   force =     0.00000000    0.00018813   -0.00042156
     atom  164 type  1   force =    -0.00000243   -0.00019601    0.00055236
     atom  165 type  1   force =    -0.00000240   -0.00019604    0.00055235
     atom  166 type  1   force =    -0.00000241   -0.00019597    0.00055228
     atom  167 type  1   force =    -0.00000180   -0.00019496    0.00055240
     atom  168 type  1   force =    -0.00000179   -0.00019495    0.00055235
     atom  169 type  1   force =     0.00000178   -0.00019491    0.00055244
     atom  170 type  1   force =     0.00000179   -0.00019491    0.00055245
     atom  171 type  1   force =     0.00000180   -0.00019496    0.00055240
     atom  172 type  1   force =     0.00000179   -0.00019495    0.00055235
     atom  173 type  1   force =     0.00000241   -0.00019596    0.00055235
     atom  174 type  1   force =     0.00000243   -0.00019601    0.00055236
     atom  175 type  1   force =     0.00000240   -0.00019604    0.00055235
     atom  176 type  1   force =     0.00000241   -0.00019597    0.00055228
     atom  177 type  1   force =     0.00000000    0.00045137    0.00050215
     atom  178 type  1   force =     0.00000000    0.00045129    0.00050216
     atom  179 type  1   force =    -0.00000338    0.00045229    0.00050233
     atom  180 type  1   force =    -0.00000337    0.00045218    0.00050243
     atom  181 type  1   force =     0.00000000    0.00045161    0.00050159
     atom  182 type  1   force =     0.00000338    0.00045229    0.00050233
     atom  183 type  1   force =    -0.00000243   -0.00028514    0.00073059
     atom  184 type  1   force =    -0.00000246   -0.00028535    0.00073181
     atom  185 type  1   force =     0.00000246   -0.00028535    0.00073181
     atom  186 type  1   force =     0.00000000    0.00045119    0.00050211
     atom  187 type  1   force =    -0.00000337    0.00045211    0.00050241
     atom  188 type  1   force =    -0.00000336    0.00045211    0.00050232
     atom  189 type  1   force =     0.00000000    0.00045150    0.00050169
     atom  190 type  1   force =     0.00000000    0.00045149    0.00050155
     atom  191 type  1   force =     0.00000337    0.00045211    0.00050241
     atom  192 type  1   force =     0.00000336    0.00045211    0.00050232
     atom  193 type  1   force =    -0.00000243   -0.00028523    0.00073067
     atom  194 type  1   force =    -0.00000245   -0.00028528    0.00073064
     atom  195 type  1   force =    -0.00000243   -0.00028527    0.00073058
     atom  196 type  1   force =    -0.00000250   -0.00028541    0.00073183
     atom  197 type  1   force =    -0.00000247   -0.00028545    0.00073178
     atom  198 type  1   force =    -0.00000246   -0.00028546    0.00073171
     atom  199 type  1   force =     0.00000250   -0.00028541    0.00073183
     atom  200 type  1   force =     0.00000247   -0.00028545    0.00073178
     atom  201 type  1   force =     0.00000246   -0.00028546    0.00073171
     atom  202 type  1   force =     0.00000243   -0.00028514    0.00073059
     atom  203 type  1   force =     0.00000243   -0.00028523    0.00073067
     atom  204 type  1   force =     0.00000245   -0.00028528    0.00073064
     atom  205 type  1   force =     0.00000243   -0.00028527    0.00073058
     atom  206 type  1   force =     0.00000000    0.00045119    0.00050225
     atom  207 type  1   force =     0.00000000    0.00045155    0.00050169
     atom  208 type  1   force =     0.00000337    0.00045218    0.00050243
     atom  209 type  1   force =    -0.00000163   -0.00056180    0.00383457
     atom  210 type  1   force =    -0.00000121   -0.00056214    0.00383384
     atom  211 type  1   force =     0.00000121   -0.00056214    0.00383384
     atom  212 type  1   force =     0.00000164   -0.00056175    0.00383465
     atom  213 type  1   force =    -0.00000254    0.00053531   -0.00458456
     atom  214 type  1   force =     0.00000000    0.00053656   -0.00458471
     atom  215 type  1   force =     0.00000256    0.00053549   -0.00458438
     atom  216 type  1   force =     0.00000000    0.00053431   -0.00458370
     atom  217 type  1   force =    -0.00000164   -0.00056167    0.00383444
     atom  218 type  1   force =    -0.00000164   -0.00056175    0.00383465
     atom  219 type  1   force =    -0.00000165   -0.00056176    0.00383438
     atom  220 type  1   force =    -0.00000122   -0.00056198    0.00383374
     atom  221 type  1   force =    -0.00000120   -0.00056211    0.00383401
     atom  222 type  1   force =     0.00000122   -0.00056198    0.00383374
     atom  223 type  1   force =     0.00000120   -0.00056211    0.00383401
     atom  224 type  1   force =     0.00000164   -0.00056167    0.00383444
     atom  225 type  1   force =     0.00000163   -0.00056180    0.00383457
     atom  226 type  1   force =    -0.00000255    0.00053556   -0.00458439
     atom  227 type  1   force =    -0.00000256    0.00053549   -0.00458438
     atom  228 type  1   force =    -0.00000254    0.00053555   -0.00458459
     atom  229 type  1   force =     0.00000000    0.00053661   -0.00458472
     atom  230 type  1   force =     0.00000000    0.00053637   -0.00458486
     atom  231 type  1   force =     0.00000255    0.00053556   -0.00458439
     atom  232 type  1   force =     0.00000254    0.00053531   -0.00458456
     atom  233 type  1   force =     0.00000000    0.00053445   -0.00458379
     atom  234 type  1   force =     0.00000000    0.00053424   -0.00458389
     atom  235 type  1   force =    -0.00000128   -0.00056207    0.00383369
     atom  236 type  1   force =     0.00000128   -0.00056207    0.00383369
     atom  237 type  1   force =     0.00000165   -0.00056176    0.00383438
     atom  238 type  1   force =     0.00000000    0.00053665   -0.00458492
     atom  239 type  1   force =     0.00000254    0.00053555   -0.00458459
     atom  240 type  1   force =     0.00000000    0.00053444   -0.00458392
     atom  241 type  1   force =    -0.00000276   -0.00337646    0.01649039
     atom  242 type  1   force =     0.00000000   -0.00337645    0.01649012
     atom  243 type  1   force =     0.00000279   -0.00337619    0.01649063
     atom  244 type  1   force =     0.00000000   -0.00337566    0.01649246
     atom  245 type  1   force =    -0.00000140    0.00161885    0.00959266
     atom  246 type  1   force =    -0.00000139    0.00162011    0.00958996
     atom  247 type  1   force =     0.00000139    0.00162011    0.00958996
     atom  248 type  1   force =     0.00000138    0.00161876    0.00959297
     atom  249 type  1   force =    -0.00000277   -0.00337583    0.01649038
     atom  250 type  1   force =    -0.00000279   -0.00337619    0.01649063
     atom  251 type  1   force =    -0.00000283   -0.00337619    0.01649011
     atom  252 type  1   force =     0.00000000   -0.00337582    0.01649014
     atom  253 type  1   force =     0.00000000   -0.00337616    0.01649035
     atom  254 type  1   force =     0.00000277   -0.00337583    0.01649038
     atom  255 type  1   force =     0.00000276   -0.00337646    0.01649039
     atom  256 type  1   force =     0.00000000   -0.00337544    0.01649231
     atom  257 type  1   force =     0.00000000   -0.00337602    0.01649231
     atom  258 type  1   force =    -0.00000140    0.00161921    0.00959301
     atom  259 type  1   force =    -0.00000138    0.00161876    0.00959297
     atom  260 type  1   force =    -0.00000139    0.00161925    0.00959265
     atom  261 type  1   force =    -0.00000137    0.00162049    0.00959003
     atom  262 type  1   force =    -0.00000137    0.00162008    0.00958967
     atom  263 type  1   force =     0.00000137    0.00162049    0.00959003
     atom  264 type  1   force =     0.00000137    0.00162008    0.00958967
     atom  265 type  1   force =     0.00000140    0.00161921    0.00959301
     atom  266 type  1   force =     0.00000140    0.00161885    0.00959266
     atom  267 type  1   force =     0.00000000   -0.00337620    0.01648990
     atom  268 type  1   force =     0.00000283   -0.00337619    0.01649011
     atom  269 type  1   force =     0.00000000   -0.00337580    0.01649205
     atom  270 type  1   force =    -0.00000131    0.00162049    0.00958969
     atom  271 type  1   force =     0.00000131    0.00162049    0.00958969
     atom  272 type  1   force =     0.00000139    0.00161925    0.00959265
     atom  273 type  1   force =    -0.00000041    0.00164751   -0.02671560
     atom  274 type  1   force =     0.00000096    0.00164536   -0.02671908
     atom  275 type  1   force =    -0.00000105    0.00164571   -0.02671874
     atom  276 type  1   force =     0.00000045    0.00164794   -0.02671556
     atom  277 type  1   force =    -0.00000047    0.00164842   -0.02671540
     atom  278 type  1   force =    -0.00000045    0.00164794   -0.02671556
     atom  279 type  1   force =    -0.00000048    0.00164818   -0.02671559
     atom  280 type  1   force =     0.00000098    0.00164650   -0.02671897
     atom  281 type  1   force =     0.00000105    0.00164571   -0.02671874
     atom  282 type  1   force =    -0.00000098    0.00164650   -0.02671897
     atom  283 type  1   force =    -0.00000096    0.00164536   -0.02671908
     atom  284 type  1   force =     0.00000047    0.00164842   -0.02671540
     atom  285 type  1   force =     0.00000041    0.00164751   -0.02671560
     atom  286 type  1   force =     0.00000048    0.00164818   -0.02671559
     atom  287 type  1   force =     0.00000103    0.00164603   -0.02671897
     atom  288 type  1   force =    -0.00000103    0.00164603   -0.02671897

     Total force =     0.190400     Total SCF correction =     0.003126
 
     init_run     :   1230.69s CPU    175.74s WALL (       1 calls)
     electrons    :  91013.19s CPU  11706.25s WALL (       1 calls)
     forces       :    611.01s CPU     87.03s WALL (       1 calls)

     Called by init_run:
     wfcinit      :   1213.62s CPU    170.17s WALL (       1 calls)
     potinit      :      3.94s CPU      0.54s WALL (       1 calls)
     hinit0       :      5.13s CPU      1.82s WALL (       1 calls)

     Called by electrons:
     c_bands      :  84721.77s CPU  10882.54s WALL (      23 calls)
     sum_band     :   6068.88s CPU    789.91s WALL (      23 calls)
     v_of_rho     :     60.98s CPU      8.39s WALL (      23 calls)
     newd         :    145.46s CPU     23.43s WALL (      23 calls)
     mix_rho      :     16.37s CPU      2.20s WALL (      23 calls)

     Called by c_bands:
     init_us_2    :    172.89s CPU     22.15s WALL (     288 calls)
     cegterg      :  83862.26s CPU  10772.88s WALL (     138 calls)

     Called by *egterg:
     cdiaghg      :  27972.61s CPU   3642.59s WALL (    1102 calls)
     h_psi        :  24504.75s CPU   3147.89s WALL (    1114 calls)
     s_psi        :   6744.02s CPU    849.78s WALL (    1114 calls)
     g_psi        :     44.26s CPU      5.58s WALL (     970 calls)

     Called by h_psi:
     h_psi:calbec :   7343.85s CPU    934.63s WALL (    1114 calls)
     vloc_psi     :   9979.47s CPU   1300.84s WALL (    1114 calls)
     add_vuspsi   :   7083.54s CPU    893.09s WALL (    1114 calls)

     General routines
     calbec       :  11022.06s CPU   1404.23s WALL (    1276 calls)
     fft          :     38.84s CPU      5.84s WALL (     309 calls)
     ffts         :      4.55s CPU      0.70s WALL (      46 calls)
     fftw         :  11572.26s CPU   1512.74s WALL ( 1444154 calls)
     interpolate  :      4.21s CPU      0.57s WALL (      23 calls)
 
     Parallel routines
     fft_scatt_xy :   1533.64s CPU    194.11s WALL ( 1444509 calls)
     fft_scatt_yz :   6390.55s CPU    860.46s WALL ( 1444509 calls)
 
     PWSCF        :   1d 1h47m CPU      3h19m WALL

 
   This run was terminated on:   1:35:21  25Sep2021            

=------------------------------------------------------------------------------=
   JOB DONE.
=------------------------------------------------------------------------------=
