
     Program PWSCF v.6.6 starts on 22Sep2021 at 22:26:54 

     This program is part of the open-source Quantum ESPRESSO suite
     for quantum simulation of materials; please cite
         "P. Giannozzi et al., J. Phys.:Condens. Matter 21 395502 (2009);
         "P. Giannozzi et al., J. Phys.:Condens. Matter 29 465901 (2017);
          URL http://www.quantum-espresso.org", 
     in publications or presentations arising from this work. More details at
     http://www.quantum-espresso.org/quote

     Parallel version (MPI & OpenMP), running on     384 processor cores
     Number of MPI processes:                48
     Threads/MPI process:                     8

     MPI processes distributed on     8 nodes
     R & G space division:  proc/nbgrp/npool/nimage =      48
     Fft bands division:     nmany     =       1
     Reading input from ../inputs/input_ausurf_432

     Current dimensions of program PWSCF are:
     Max number of different atomic species (ntypx) = 10
     Max number of k-points (npk) =  40000
     Max angular momentum in pseudopotentials (lmaxx) =  3

     Subspace diagonalization in iterative solution of the eigenvalue problem:
     one sub-group per band group will be used
     ELPA distributed-memory algorithm (size of sub-group:  6*  6 procs)

     Found symmetry operation: I + (  0.1667  0.0000  0.0000)
     This is a supercell, fractional translations are disabled
 
     Parallelization info
     --------------------
     sticks:   dense  smooth     PW     G-vecs:    dense   smooth      PW
     Min         749     342     88               178137    55058    7188
     Max         751     343     89               178142    55067    7195
     Sum       35971   16449   4235              8550627  2643085  345153
 

     Title: 
      Ausurf                                                                    


     bravais-lattice index     =            8
     lattice parameter (alat)  =      33.4482  a.u.
     unit-cell volume          =   77333.9228 (a.u.)^3
     number of atoms/cell      =          432
     number of atomic types    =            1
     number of electrons       =      4752.00
     number of Kohn-Sham states=         2851
     kinetic-energy cutoff     =      40.0000  Ry
     charge density cutoff     =     350.0000  Ry
     convergence threshold     =      1.0E-06
     mixing beta               =       0.7000
     number of iterations used =            8  TF        mixing
     Exchange-correlation=  SLA  PW   PBE  PBE
                           (   1   4   3   4   0   0   0)

     celldm(1)=  33.448152  celldm(2)=   1.154701  celldm(3)=   1.789717
     celldm(4)=   0.000000  celldm(5)=   0.000000  celldm(6)=   0.000000

     crystal axes: (cart. coord. in units of alat)
               a(1) = (   1.000000   0.000000   0.000000 )  
               a(2) = (   0.000000   1.154701   0.000000 )  
               a(3) = (   0.000000   0.000000   1.789717 )  

     reciprocal axes: (cart. coord. in units 2 pi/alat)
               b(1) = (  1.000000  0.000000  0.000000 )  
               b(2) = (  0.000000  0.866025  0.000000 )  
               b(3) = (  0.000000  0.000000  0.558748 )  


     PseudoPot. # 1 for Au read from file:
     /marconi/home/userexternal/czeni000/dft_src/pseudo/Au.pbe-nd-van.UPF
     MD5 check sum: deb5c07af10777505a79e28f5b4b4115
     Pseudo is Ultrasoft + core correction, Zval = 11.0
     Generated by new atomic code, or converted to UPF format
     Using radial grid of  985 points,  3 beta functions with: 
                l(1) =   1
                l(2) =   2
                l(3) =   2
     Q(r) pseudized with  8 coefficients,  rinner =    1.100   1.100   1.100
                                                       1.100   1.100

     atomic species   valence    mass     pseudopotential
        Au            11.00   196.96000     Au( 1.00)

      2 Sym. Ops. (no inversion) found



   Cartesian axes

     site n.     atom                  positions (alat units)
         1           Au  tau(   1) = (   0.0000000   0.0000000   0.0000000  )
         2           Au  tau(   2) = (   0.1666667   0.0000000   0.0000000  )
         3           Au  tau(   3) = (   0.3333333   0.0000000   0.0000000  )
         4           Au  tau(   4) = (   0.0000000   0.2886751   0.0000000  )
         5           Au  tau(   5) = (   0.5000000   0.0000000   0.0000000  )
         6           Au  tau(   6) = (   0.1666667   0.2886751   0.0000000  )
         7           Au  tau(   7) = (   0.6666667   0.0000000   0.0000000  )
         8           Au  tau(   8) = (   0.3333333   0.2886751   0.0000000  )
         9           Au  tau(   9) = (   0.8333333   0.0000000   0.0000000  )
        10           Au  tau(  10) = (   0.0000000   0.5773503   0.0000000  )
        11           Au  tau(  11) = (   0.5000000   0.2886751   0.0000000  )
        12           Au  tau(  12) = (   0.1666667   0.5773503   0.0000000  )
        13           Au  tau(  13) = (   0.6666667   0.2886751   0.0000000  )
        14           Au  tau(  14) = (   0.3333333   0.5773503   0.0000000  )
        15           Au  tau(  15) = (   0.8333333   0.2886751   0.0000000  )
        16           Au  tau(  16) = (   0.0000000   0.8660254   0.0000000  )
        17           Au  tau(  17) = (   0.5000000   0.5773503   0.0000000  )
        18           Au  tau(  18) = (   0.1666667   0.8660254   0.0000000  )
        19           Au  tau(  19) = (   0.6666667   0.5773503   0.0000000  )
        20           Au  tau(  20) = (   0.3333333   0.8660254   0.0000000  )
        21           Au  tau(  21) = (   0.8333333   0.5773503   0.0000000  )
        22           Au  tau(  22) = (   0.5000000   0.8660254   0.0000000  )
        23           Au  tau(  23) = (   0.6666667   0.8660254   0.0000000  )
        24           Au  tau(  24) = (   0.8333333   0.8660254   0.0000000  )
        25           Au  tau(  25) = (   0.0833333   0.0481125   0.1360828  )
        26           Au  tau(  26) = (   0.2500000   0.0481125   0.1360828  )
        27           Au  tau(  27) = (   0.4166667   0.0481125   0.1360828  )
        28           Au  tau(  28) = (   0.0833333   0.3367877   0.1360828  )
        29           Au  tau(  29) = (   0.4166667   0.3367877   0.1360828  )
        30           Au  tau(  30) = (   0.5833333   0.0481125   0.1360828  )
        31           Au  tau(  31) = (   0.9166667   0.0481125   0.1360828  )
        32           Au  tau(  32) = (   0.0833333   0.6254628   0.1360828  )
        33           Au  tau(  33) = (   0.2500000   0.3367877   0.1360828  )
        34           Au  tau(  34) = (   0.2500000   0.6254628   0.1360828  )
        35           Au  tau(  35) = (   0.5833333   0.3367877   0.1360828  )
        36           Au  tau(  36) = (   0.7500000   0.0481125   0.1360828  )
        37           Au  tau(  37) = (   0.7500000   0.3367877   0.1360828  )
        38           Au  tau(  38) = (   0.1666667   0.1924501   0.1360828  )
        39           Au  tau(  39) = (   0.1666667   0.4811252   0.1360828  )
        40           Au  tau(  40) = (   0.6666667   0.1924501   0.1360828  )
        41           Au  tau(  41) = (   0.2500000   0.9141379   0.1360828  )
        42           Au  tau(  42) = (   0.4166667   0.6254628   0.1360828  )
        43           Au  tau(  43) = (   0.7500000   0.6254628   0.1360828  )
        44           Au  tau(  44) = (   0.9166667   0.3367877   0.1360828  )
        45           Au  tau(  45) = (   0.3333333   0.1924501   0.1360828  )
        46           Au  tau(  46) = (   0.5000000   0.1924501   0.1360828  )
        47           Au  tau(  47) = (   0.0833333   0.9141379   0.1360828  )
        48           Au  tau(  48) = (   0.4166667   0.9141379   0.1360828  )
        49           Au  tau(  49) = (   0.5833333   0.6254628   0.1360828  )
        50           Au  tau(  50) = (   0.5833333   0.9141379   0.1360828  )
        51           Au  tau(  51) = (   0.9166667   0.6254628   0.1360828  )
        52           Au  tau(  52) = (   0.3333333   0.4811252   0.1360828  )
        53           Au  tau(  53) = (   0.5000000   0.4811252   0.1360828  )
        54           Au  tau(  54) = (   0.5000000   0.7698003   0.1360828  )
        55           Au  tau(  55) = (   0.8333333   0.1924501   0.1360828  )
        56           Au  tau(  56) = (   1.0000000   0.1924501   0.1360828  )
        57           Au  tau(  57) = (   1.0000000   0.4811252   0.1360828  )
        58           Au  tau(  58) = (   0.7500000   0.9141379   0.1360828  )
        59           Au  tau(  59) = (   0.1666667   0.7698003   0.1360828  )
        60           Au  tau(  60) = (   0.3333333   0.7698003   0.1360828  )
        61           Au  tau(  61) = (   0.6666667   0.4811252   0.1360828  )
        62           Au  tau(  62) = (   0.8333333   0.4811252   0.1360828  )
        63           Au  tau(  63) = (   0.9166667   0.9141379   0.1360828  )
        64           Au  tau(  64) = (   0.1666667   1.0584755   0.1360828  )
        65           Au  tau(  65) = (   0.3333333   1.0584755   0.1360828  )
        66           Au  tau(  66) = (   0.6666667   0.7698003   0.1360828  )
        67           Au  tau(  67) = (   0.8333333   0.7698003   0.1360828  )
        68           Au  tau(  68) = (   0.5000000   1.0584755   0.1360828  )
        69           Au  tau(  69) = (   0.6666667   1.0584755   0.1360828  )
        70           Au  tau(  70) = (   0.8333333   1.0584755   0.1360828  )
        71           Au  tau(  71) = (   1.0000000   0.7698003   0.1360828  )
        72           Au  tau(  72) = (   1.0000000   1.0584755   0.1360828  )
        73           Au  tau(  73) = (   0.1666667   0.0962250   0.2721655  )
        74           Au  tau(  74) = (   0.4166667   0.2405626   0.2721655  )
        75           Au  tau(  75) = (   0.3333333   0.0962250   0.2721655  )
        76           Au  tau(  76) = (   0.5000000   0.0962250   0.2721655  )
        77           Au  tau(  77) = (   0.0833333   0.2405626   0.2721655  )
        78           Au  tau(  78) = (   0.2500000   0.2405626   0.2721655  )
        79           Au  tau(  79) = (   0.1666667   0.3849002   0.2721655  )
        80           Au  tau(  80) = (   0.3333333   0.3849002   0.2721655  )
        81           Au  tau(  81) = (   0.3333333   0.6735753   0.2721655  )
        82           Au  tau(  82) = (   0.3333333   0.9622505   0.2721655  )
        83           Au  tau(  83) = (   0.5000000   0.3849002   0.2721655  )
        84           Au  tau(  84) = (   0.6666667   0.0962250   0.2721655  )
        85           Au  tau(  85) = (   0.8333333   0.0962250   0.2721655  )
        86           Au  tau(  86) = (   0.8333333   0.3849002   0.2721655  )
        87           Au  tau(  87) = (   0.8333333   0.6735753   0.2721655  )
        88           Au  tau(  88) = (   1.0000000   0.0962250   0.2721655  )
        89           Au  tau(  89) = (   0.0833333   0.5292377   0.2721655  )
        90           Au  tau(  90) = (   0.0833333   0.8179129   0.2721655  )
        91           Au  tau(  91) = (   0.0833333   1.1065880   0.2721655  )
        92           Au  tau(  92) = (   0.2500000   0.5292377   0.2721655  )
        93           Au  tau(  93) = (   0.2500000   0.8179129   0.2721655  )
        94           Au  tau(  94) = (   0.5833333   0.2405626   0.2721655  )
        95           Au  tau(  95) = (   0.5833333   0.5292377   0.2721655  )
        96           Au  tau(  96) = (   0.5833333   0.8179129   0.2721655  )
        97           Au  tau(  97) = (   0.5833333   1.1065880   0.2721655  )
        98           Au  tau(  98) = (   0.7500000   0.2405626   0.2721655  )
        99           Au  tau(  99) = (   0.7500000   0.5292377   0.2721655  )
       100           Au  tau( 100) = (   0.1666667   0.6735753   0.2721655  )
       101           Au  tau( 101) = (   0.1666667   0.9622505   0.2721655  )
       102           Au  tau( 102) = (   0.5000000   0.6735753   0.2721655  )
       103           Au  tau( 103) = (   0.5000000   0.9622505   0.2721655  )
       104           Au  tau( 104) = (   0.6666667   0.3849002   0.2721655  )
       105           Au  tau( 105) = (   0.6666667   0.6735753   0.2721655  )
       106           Au  tau( 106) = (   0.6666667   0.9622505   0.2721655  )
       107           Au  tau( 107) = (   1.0000000   0.3849002   0.2721655  )
       108           Au  tau( 108) = (   1.0000000   0.6735753   0.2721655  )
       109           Au  tau( 109) = (   0.2500000   1.1065880   0.2721655  )
       110           Au  tau( 110) = (   0.4166667   0.5292377   0.2721655  )
       111           Au  tau( 111) = (   0.4166667   0.8179129   0.2721655  )
       112           Au  tau( 112) = (   0.4166667   1.1065880   0.2721655  )
       113           Au  tau( 113) = (   0.7500000   0.8179129   0.2721655  )
       114           Au  tau( 114) = (   0.9166667   0.2405626   0.2721655  )
       115           Au  tau( 115) = (   0.9166667   0.5292377   0.2721655  )
       116           Au  tau( 116) = (   0.9166667   0.8179129   0.2721655  )
       117           Au  tau( 117) = (   0.8333333   0.9622505   0.2721655  )
       118           Au  tau( 118) = (   1.0000000   0.9622505   0.2721655  )
       119           Au  tau( 119) = (   0.7500000   1.1065880   0.2721655  )
       120           Au  tau( 120) = (   0.9166667   1.1065880   0.2721655  )
       121           Au  tau( 121) = (   0.4166667   0.1443376   0.4082483  )
       122           Au  tau( 122) = (   0.0000000   0.0000000   0.4082483  )
       123           Au  tau( 123) = (   0.1666667   0.0000000   0.4082483  )
       124           Au  tau( 124) = (   0.3333333   0.0000000   0.4082483  )
       125           Au  tau( 125) = (   0.0833333   0.1443376   0.4082483  )
       126           Au  tau( 126) = (   0.0000000   0.5773503   0.4082483  )
       127           Au  tau( 127) = (   0.1666667   0.2886751   0.4082483  )
       128           Au  tau( 128) = (   0.1666667   0.5773503   0.4082483  )
       129           Au  tau( 129) = (   0.3333333   0.2886751   0.4082483  )
       130           Au  tau( 130) = (   0.5000000   0.2886751   0.4082483  )
       131           Au  tau( 131) = (   0.6666667   0.0000000   0.4082483  )
       132           Au  tau( 132) = (   0.6666667   0.2886751   0.4082483  )
       133           Au  tau( 133) = (   0.8333333   0.0000000   0.4082483  )
       134           Au  tau( 134) = (   0.0833333   0.4330127   0.4082483  )
       135           Au  tau( 135) = (   0.2500000   0.1443376   0.4082483  )
       136           Au  tau( 136) = (   0.2500000   0.4330127   0.4082483  )
       137           Au  tau( 137) = (   0.4166667   0.4330127   0.4082483  )
       138           Au  tau( 138) = (   0.5833333   0.1443376   0.4082483  )
       139           Au  tau( 139) = (   0.7500000   0.1443376   0.4082483  )
       140           Au  tau( 140) = (   0.9166667   0.1443376   0.4082483  )
       141           Au  tau( 141) = (   0.0000000   0.2886751   0.4082483  )
       142           Au  tau( 142) = (   0.1666667   0.8660254   0.4082483  )
       143           Au  tau( 143) = (   0.3333333   0.8660254   0.4082483  )
       144           Au  tau( 144) = (   0.5000000   0.0000000   0.4082483  )
       145           Au  tau( 145) = (   0.5000000   0.8660254   0.4082483  )
       146           Au  tau( 146) = (   0.6666667   0.5773503   0.4082483  )
       147           Au  tau( 147) = (   0.8333333   0.5773503   0.4082483  )
       148           Au  tau( 148) = (   0.0833333   0.7216879   0.4082483  )
       149           Au  tau( 149) = (   0.0833333   1.0103630   0.4082483  )
       150           Au  tau( 150) = (   0.2500000   0.7216879   0.4082483  )
       151           Au  tau( 151) = (   0.2500000   1.0103630   0.4082483  )
       152           Au  tau( 152) = (   0.4166667   0.7216879   0.4082483  )
       153           Au  tau( 153) = (   0.5833333   0.4330127   0.4082483  )
       154           Au  tau( 154) = (   0.5833333   0.7216879   0.4082483  )
       155           Au  tau( 155) = (   0.7500000   0.4330127   0.4082483  )
       156           Au  tau( 156) = (   0.7500000   0.7216879   0.4082483  )
       157           Au  tau( 157) = (   0.9166667   0.4330127   0.4082483  )
       158           Au  tau( 158) = (   0.0000000   0.8660254   0.4082483  )
       159           Au  tau( 159) = (   0.3333333   0.5773503   0.4082483  )
       160           Au  tau( 160) = (   0.5000000   0.5773503   0.4082483  )
       161           Au  tau( 161) = (   0.6666667   0.8660254   0.4082483  )
       162           Au  tau( 162) = (   0.8333333   0.2886751   0.4082483  )
       163           Au  tau( 163) = (   0.8333333   0.8660254   0.4082483  )
       164           Au  tau( 164) = (   0.4166667   1.0103630   0.4082483  )
       165           Au  tau( 165) = (   0.5833333   1.0103630   0.4082483  )
       166           Au  tau( 166) = (   0.7500000   1.0103630   0.4082483  )
       167           Au  tau( 167) = (   0.9166667   0.7216879   0.4082483  )
       168           Au  tau( 168) = (   0.9166667   1.0103630   0.4082483  )
       169           Au  tau( 169) = (   0.0833333   0.3367877   0.5443311  )
       170           Au  tau( 170) = (   0.5833333   0.0481125   0.5443311  )
       171           Au  tau( 171) = (   0.3333333   0.1924501   0.5443311  )
       172           Au  tau( 172) = (   0.0833333   0.0481125   0.5443311  )
       173           Au  tau( 173) = (   0.2500000   0.0481125   0.5443311  )
       174           Au  tau( 174) = (   0.2500000   0.3367877   0.5443311  )
       175           Au  tau( 175) = (   0.4166667   0.0481125   0.5443311  )
       176           Au  tau( 176) = (   0.7500000   0.0481125   0.5443311  )
       177           Au  tau( 177) = (   0.1666667   0.1924501   0.5443311  )
       178           Au  tau( 178) = (   0.1666667   0.4811252   0.5443311  )
       179           Au  tau( 179) = (   0.3333333   0.4811252   0.5443311  )
       180           Au  tau( 180) = (   0.5000000   0.1924501   0.5443311  )
       181           Au  tau( 181) = (   0.6666667   0.1924501   0.5443311  )
       182           Au  tau( 182) = (   0.8333333   0.1924501   0.5443311  )
       183           Au  tau( 183) = (   0.0833333   0.6254628   0.5443311  )
       184           Au  tau( 184) = (   0.0833333   0.9141379   0.5443311  )
       185           Au  tau( 185) = (   0.2500000   0.6254628   0.5443311  )
       186           Au  tau( 186) = (   0.2500000   0.9141379   0.5443311  )
       187           Au  tau( 187) = (   0.4166667   0.3367877   0.5443311  )
       188           Au  tau( 188) = (   0.4166667   0.6254628   0.5443311  )
       189           Au  tau( 189) = (   0.4166667   0.9141379   0.5443311  )
       190           Au  tau( 190) = (   0.5833333   0.3367877   0.5443311  )
       191           Au  tau( 191) = (   0.5833333   0.6254628   0.5443311  )
       192           Au  tau( 192) = (   0.5833333   0.9141379   0.5443311  )
       193           Au  tau( 193) = (   0.7500000   0.3367877   0.5443311  )
       194           Au  tau( 194) = (   0.7500000   0.6254628   0.5443311  )
       195           Au  tau( 195) = (   0.7500000   0.9141379   0.5443311  )
       196           Au  tau( 196) = (   0.9166667   0.0481125   0.5443311  )
       197           Au  tau( 197) = (   0.9166667   0.3367877   0.5443311  )
       198           Au  tau( 198) = (   0.9166667   0.6254628   0.5443311  )
       199           Au  tau( 199) = (   0.1666667   0.7698003   0.5443311  )
       200           Au  tau( 200) = (   0.1666667   1.0584755   0.5443311  )
       201           Au  tau( 201) = (   0.3333333   0.7698003   0.5443311  )
       202           Au  tau( 202) = (   0.3333333   1.0584755   0.5443311  )
       203           Au  tau( 203) = (   0.5000000   0.4811252   0.5443311  )
       204           Au  tau( 204) = (   0.5000000   0.7698003   0.5443311  )
       205           Au  tau( 205) = (   0.5000000   1.0584755   0.5443311  )
       206           Au  tau( 206) = (   0.6666667   0.4811252   0.5443311  )
       207           Au  tau( 207) = (   0.6666667   0.7698003   0.5443311  )
       208           Au  tau( 208) = (   0.8333333   0.4811252   0.5443311  )
       209           Au  tau( 209) = (   0.8333333   0.7698003   0.5443311  )
       210           Au  tau( 210) = (   1.0000000   0.1924501   0.5443311  )
       211           Au  tau( 211) = (   1.0000000   0.4811252   0.5443311  )
       212           Au  tau( 212) = (   1.0000000   0.7698003   0.5443311  )
       213           Au  tau( 213) = (   1.0000000   1.0584755   0.5443311  )
       214           Au  tau( 214) = (   0.9166667   0.9141379   0.5443311  )
       215           Au  tau( 215) = (   0.6666667   1.0584755   0.5443311  )
       216           Au  tau( 216) = (   0.8333333   1.0584755   0.5443311  )
       217           Au  tau( 217) = (   0.1666667   0.0962250   0.6804138  )
       218           Au  tau( 218) = (   0.3333333   0.0962250   0.6804138  )
       219           Au  tau( 219) = (   0.5000000   0.0962250   0.6804138  )
       220           Au  tau( 220) = (   0.0833333   0.2405626   0.6804138  )
       221           Au  tau( 221) = (   0.2500000   0.2405626   0.6804138  )
       222           Au  tau( 222) = (   0.2500000   0.5292377   0.6804138  )
       223           Au  tau( 223) = (   0.7500000   0.2405626   0.6804138  )
       224           Au  tau( 224) = (   0.1666667   0.3849002   0.6804138  )
       225           Au  tau( 225) = (   0.1666667   0.6735753   0.6804138  )
       226           Au  tau( 226) = (   0.1666667   0.9622505   0.6804138  )
       227           Au  tau( 227) = (   0.3333333   0.3849002   0.6804138  )
       228           Au  tau( 228) = (   0.3333333   0.6735753   0.6804138  )
       229           Au  tau( 229) = (   0.3333333   0.9622505   0.6804138  )
       230           Au  tau( 230) = (   0.5000000   0.3849002   0.6804138  )
       231           Au  tau( 231) = (   0.5000000   0.6735753   0.6804138  )
       232           Au  tau( 232) = (   0.5000000   0.9622505   0.6804138  )
       233           Au  tau( 233) = (   0.6666667   0.0962250   0.6804138  )
       234           Au  tau( 234) = (   0.6666667   0.3849002   0.6804138  )
       235           Au  tau( 235) = (   0.6666667   0.6735753   0.6804138  )
       236           Au  tau( 236) = (   0.6666667   0.9622505   0.6804138  )
       237           Au  tau( 237) = (   0.8333333   0.0962250   0.6804138  )
       238           Au  tau( 238) = (   0.8333333   0.3849002   0.6804138  )
       239           Au  tau( 239) = (   0.8333333   0.6735753   0.6804138  )
       240           Au  tau( 240) = (   1.0000000   0.0962250   0.6804138  )
       241           Au  tau( 241) = (   1.0000000   0.3849002   0.6804138  )
       242           Au  tau( 242) = (   1.0000000   0.6735753   0.6804138  )
       243           Au  tau( 243) = (   0.0833333   0.5292377   0.6804138  )
       244           Au  tau( 244) = (   0.0833333   0.8179129   0.6804138  )
       245           Au  tau( 245) = (   0.0833333   1.1065880   0.6804138  )
       246           Au  tau( 246) = (   0.2500000   0.8179129   0.6804138  )
       247           Au  tau( 247) = (   0.2500000   1.1065880   0.6804138  )
       248           Au  tau( 248) = (   0.4166667   0.2405626   0.6804138  )
       249           Au  tau( 249) = (   0.4166667   0.5292377   0.6804138  )
       250           Au  tau( 250) = (   0.4166667   0.8179129   0.6804138  )
       251           Au  tau( 251) = (   0.4166667   1.1065880   0.6804138  )
       252           Au  tau( 252) = (   0.5833333   0.2405626   0.6804138  )
       253           Au  tau( 253) = (   0.5833333   0.5292377   0.6804138  )
       254           Au  tau( 254) = (   0.5833333   0.8179129   0.6804138  )
       255           Au  tau( 255) = (   0.7500000   0.5292377   0.6804138  )
       256           Au  tau( 256) = (   0.7500000   0.8179129   0.6804138  )
       257           Au  tau( 257) = (   0.9166667   0.2405626   0.6804138  )
       258           Au  tau( 258) = (   0.9166667   0.5292377   0.6804138  )
       259           Au  tau( 259) = (   0.9166667   0.8179129   0.6804138  )
       260           Au  tau( 260) = (   0.8333333   0.9622505   0.6804138  )
       261           Au  tau( 261) = (   1.0000000   0.9622505   0.6804138  )
       262           Au  tau( 262) = (   0.5833333   1.1065880   0.6804138  )
       263           Au  tau( 263) = (   0.7500000   1.1065880   0.6804138  )
       264           Au  tau( 264) = (   0.9166667   1.1065880   0.6804138  )
       265           Au  tau( 265) = (   0.0000000   0.0000000   0.8164966  )
       266           Au  tau( 266) = (   0.0000000   0.2886751   0.8164966  )
       267           Au  tau( 267) = (   0.1666667   0.0000000   0.8164966  )
       268           Au  tau( 268) = (   0.1666667   0.2886751   0.8164966  )
       269           Au  tau( 269) = (   0.3333333   0.0000000   0.8164966  )
       270           Au  tau( 270) = (   0.5000000   0.0000000   0.8164966  )
       271           Au  tau( 271) = (   0.6666667   0.0000000   0.8164966  )
       272           Au  tau( 272) = (   0.0833333   0.1443376   0.8164966  )
       273           Au  tau( 273) = (   0.2500000   0.1443376   0.8164966  )
       274           Au  tau( 274) = (   0.4166667   0.1443376   0.8164966  )
       275           Au  tau( 275) = (   0.0000000   0.8660254   0.8164966  )
       276           Au  tau( 276) = (   0.1666667   0.5773503   0.8164966  )
       277           Au  tau( 277) = (   0.1666667   0.8660254   0.8164966  )
       278           Au  tau( 278) = (   0.3333333   0.5773503   0.8164966  )
       279           Au  tau( 279) = (   0.3333333   0.8660254   0.8164966  )
       280           Au  tau( 280) = (   0.5000000   0.5773503   0.8164966  )
       281           Au  tau( 281) = (   0.5000000   0.8660254   0.8164966  )
       282           Au  tau( 282) = (   0.6666667   0.2886751   0.8164966  )
       283           Au  tau( 283) = (   0.6666667   0.5773503   0.8164966  )
       284           Au  tau( 284) = (   0.6666667   0.8660254   0.8164966  )
       285           Au  tau( 285) = (   0.8333333   0.2886751   0.8164966  )
       286           Au  tau( 286) = (   0.8333333   0.5773503   0.8164966  )
       287           Au  tau( 287) = (   0.8333333   0.8660254   0.8164966  )
       288           Au  tau( 288) = (   0.0833333   0.4330127   0.8164966  )
       289           Au  tau( 289) = (   0.0833333   0.7216879   0.8164966  )
       290           Au  tau( 290) = (   0.0833333   1.0103630   0.8164966  )
       291           Au  tau( 291) = (   0.2500000   0.4330127   0.8164966  )
       292           Au  tau( 292) = (   0.2500000   0.7216879   0.8164966  )
       293           Au  tau( 293) = (   0.2500000   1.0103630   0.8164966  )
       294           Au  tau( 294) = (   0.4166667   0.4330127   0.8164966  )
       295           Au  tau( 295) = (   0.4166667   0.7216879   0.8164966  )
       296           Au  tau( 296) = (   0.4166667   1.0103630   0.8164966  )
       297           Au  tau( 297) = (   0.5833333   0.1443376   0.8164966  )
       298           Au  tau( 298) = (   0.5833333   0.4330127   0.8164966  )
       299           Au  tau( 299) = (   0.5833333   0.7216879   0.8164966  )
       300           Au  tau( 300) = (   0.5833333   1.0103630   0.8164966  )
       301           Au  tau( 301) = (   0.7500000   0.1443376   0.8164966  )
       302           Au  tau( 302) = (   0.7500000   0.4330127   0.8164966  )
       303           Au  tau( 303) = (   0.7500000   0.7216879   0.8164966  )
       304           Au  tau( 304) = (   0.9166667   0.1443376   0.8164966  )
       305           Au  tau( 305) = (   0.9166667   0.4330127   0.8164966  )
       306           Au  tau( 306) = (   0.9166667   0.7216879   0.8164966  )
       307           Au  tau( 307) = (   0.0000000   0.5773503   0.8164966  )
       308           Au  tau( 308) = (   0.3333333   0.2886751   0.8164966  )
       309           Au  tau( 309) = (   0.5000000   0.2886751   0.8164966  )
       310           Au  tau( 310) = (   0.8333333   0.0000000   0.8164966  )
       311           Au  tau( 311) = (   0.7500000   1.0103630   0.8164966  )
       312           Au  tau( 312) = (   0.9166667   1.0103630   0.8164966  )
       313           Au  tau( 313) = (   0.0833333   0.6254628   0.9525793  )
       314           Au  tau( 314) = (   0.2500000   0.6254628   0.9525793  )
       315           Au  tau( 315) = (   0.4166667   0.6254628   0.9525793  )
       316           Au  tau( 316) = (   0.5833333   0.3367877   0.9525793  )
       317           Au  tau( 317) = (   0.7500000   0.3367877   0.9525793  )
       318           Au  tau( 318) = (   0.9166667   0.3367877   0.9525793  )
       319           Au  tau( 319) = (   0.1666667   0.7698003   0.9525793  )
       320           Au  tau( 320) = (   0.3333333   0.4811252   0.9525793  )
       321           Au  tau( 321) = (   0.5000000   0.4811252   0.9525793  )
       322           Au  tau( 322) = (   0.6666667   0.4811252   0.9525793  )
       323           Au  tau( 323) = (   0.8333333   0.1924501   0.9525793  )
       324           Au  tau( 324) = (   1.0000000   0.1924501   0.9525793  )
       325           Au  tau( 325) = (   0.0833333   0.0481125   0.9525793  )
       326           Au  tau( 326) = (   0.0833333   0.3367877   0.9525793  )
       327           Au  tau( 327) = (   0.0833333   0.9141379   0.9525793  )
       328           Au  tau( 328) = (   0.2500000   0.0481125   0.9525793  )
       329           Au  tau( 329) = (   0.2500000   0.3367877   0.9525793  )
       330           Au  tau( 330) = (   0.4166667   0.0481125   0.9525793  )
       331           Au  tau( 331) = (   0.4166667   0.3367877   0.9525793  )
       332           Au  tau( 332) = (   0.5833333   0.0481125   0.9525793  )
       333           Au  tau( 333) = (   0.5833333   0.6254628   0.9525793  )
       334           Au  tau( 334) = (   0.7500000   0.0481125   0.9525793  )
       335           Au  tau( 335) = (   0.9166667   0.0481125   0.9525793  )
       336           Au  tau( 336) = (   0.1666667   0.1924501   0.9525793  )
       337           Au  tau( 337) = (   0.1666667   0.4811252   0.9525793  )
       338           Au  tau( 338) = (   0.1666667   1.0584755   0.9525793  )
       339           Au  tau( 339) = (   0.3333333   0.1924501   0.9525793  )
       340           Au  tau( 340) = (   0.3333333   0.7698003   0.9525793  )
       341           Au  tau( 341) = (   0.5000000   0.1924501   0.9525793  )
       342           Au  tau( 342) = (   0.5000000   0.7698003   0.9525793  )
       343           Au  tau( 343) = (   0.6666667   0.1924501   0.9525793  )
       344           Au  tau( 344) = (   0.6666667   0.7698003   0.9525793  )
       345           Au  tau( 345) = (   0.8333333   0.4811252   0.9525793  )
       346           Au  tau( 346) = (   1.0000000   0.4811252   0.9525793  )
       347           Au  tau( 347) = (   0.2500000   0.9141379   0.9525793  )
       348           Au  tau( 348) = (   0.4166667   0.9141379   0.9525793  )
       349           Au  tau( 349) = (   0.5833333   0.9141379   0.9525793  )
       350           Au  tau( 350) = (   0.7500000   0.6254628   0.9525793  )
       351           Au  tau( 351) = (   0.7500000   0.9141379   0.9525793  )
       352           Au  tau( 352) = (   0.9166667   0.6254628   0.9525793  )
       353           Au  tau( 353) = (   0.9166667   0.9141379   0.9525793  )
       354           Au  tau( 354) = (   0.3333333   1.0584755   0.9525793  )
       355           Au  tau( 355) = (   0.5000000   1.0584755   0.9525793  )
       356           Au  tau( 356) = (   0.6666667   1.0584755   0.9525793  )
       357           Au  tau( 357) = (   0.8333333   0.7698003   0.9525793  )
       358           Au  tau( 358) = (   0.8333333   1.0584755   0.9525793  )
       359           Au  tau( 359) = (   1.0000000   0.7698003   0.9525793  )
       360           Au  tau( 360) = (   1.0000000   1.0584755   0.9525793  )
       361           Au  tau( 361) = (   0.1666667   0.6735753   1.0886621  )
       362           Au  tau( 362) = (   0.3333333   0.6735753   1.0886621  )
       363           Au  tau( 363) = (   0.5000000   0.3849002   1.0886621  )
       364           Au  tau( 364) = (   0.6666667   0.3849002   1.0886621  )
       365           Au  tau( 365) = (   0.8333333   0.3849002   1.0886621  )
       366           Au  tau( 366) = (   1.0000000   0.0962250   1.0886621  )
       367           Au  tau( 367) = (   0.0833333   0.8179129   1.0886621  )
       368           Au  tau( 368) = (   0.2500000   0.5292377   1.0886621  )
       369           Au  tau( 369) = (   0.4166667   0.5292377   1.0886621  )
       370           Au  tau( 370) = (   0.5833333   0.5292377   1.0886621  )
       371           Au  tau( 371) = (   0.7500000   0.2405626   1.0886621  )
       372           Au  tau( 372) = (   0.9166667   0.2405626   1.0886621  )
       373           Au  tau( 373) = (   0.1666667   0.0962250   1.0886621  )
       374           Au  tau( 374) = (   0.1666667   0.3849002   1.0886621  )
       375           Au  tau( 375) = (   0.1666667   0.9622505   1.0886621  )
       376           Au  tau( 376) = (   0.3333333   0.0962250   1.0886621  )
       377           Au  tau( 377) = (   0.3333333   0.3849002   1.0886621  )
       378           Au  tau( 378) = (   0.5000000   0.0962250   1.0886621  )
       379           Au  tau( 379) = (   0.5000000   0.6735753   1.0886621  )
       380           Au  tau( 380) = (   0.6666667   0.0962250   1.0886621  )
       381           Au  tau( 381) = (   0.6666667   0.6735753   1.0886621  )
       382           Au  tau( 382) = (   0.8333333   0.0962250   1.0886621  )
       383           Au  tau( 383) = (   1.0000000   0.3849002   1.0886621  )
       384           Au  tau( 384) = (   0.0833333   0.2405626   1.0886621  )
       385           Au  tau( 385) = (   0.0833333   0.5292377   1.0886621  )
       386           Au  tau( 386) = (   0.0833333   1.1065880   1.0886621  )
       387           Au  tau( 387) = (   0.2500000   0.2405626   1.0886621  )
       388           Au  tau( 388) = (   0.2500000   0.8179129   1.0886621  )
       389           Au  tau( 389) = (   0.4166667   0.2405626   1.0886621  )
       390           Au  tau( 390) = (   0.4166667   0.8179129   1.0886621  )
       391           Au  tau( 391) = (   0.5833333   0.2405626   1.0886621  )
       392           Au  tau( 392) = (   0.5833333   0.8179129   1.0886621  )
       393           Au  tau( 393) = (   0.7500000   0.5292377   1.0886621  )
       394           Au  tau( 394) = (   0.9166667   0.5292377   1.0886621  )
       395           Au  tau( 395) = (   0.3333333   0.9622505   1.0886621  )
       396           Au  tau( 396) = (   0.5000000   0.9622505   1.0886621  )
       397           Au  tau( 397) = (   0.6666667   0.9622505   1.0886621  )
       398           Au  tau( 398) = (   0.8333333   0.6735753   1.0886621  )
       399           Au  tau( 399) = (   0.8333333   0.9622505   1.0886621  )
       400           Au  tau( 400) = (   1.0000000   0.6735753   1.0886621  )
       401           Au  tau( 401) = (   1.0000000   0.9622505   1.0886621  )
       402           Au  tau( 402) = (   0.2500000   1.1065880   1.0886621  )
       403           Au  tau( 403) = (   0.4166667   1.1065880   1.0886621  )
       404           Au  tau( 404) = (   0.5833333   1.1065880   1.0886621  )
       405           Au  tau( 405) = (   0.7500000   0.8179129   1.0886621  )
       406           Au  tau( 406) = (   0.7500000   1.1065880   1.0886621  )
       407           Au  tau( 407) = (   0.9166667   0.8179129   1.0886621  )
       408           Au  tau( 408) = (   0.9166667   1.1065880   1.0886621  )
       409           Au  tau( 409) = (   0.0833333   0.7216879   1.2247449  )
       410           Au  tau( 410) = (   0.2500000   0.7216879   1.2247449  )
       411           Au  tau( 411) = (   0.4166667   0.4330127   1.2247449  )
       412           Au  tau( 412) = (   0.5833333   0.4330127   1.2247449  )
       413           Au  tau( 413) = (   0.7500000   0.4330127   1.2247449  )
       414           Au  tau( 414) = (   0.9166667   0.1443376   1.2247449  )
       415           Au  tau( 415) = (   0.0833333   0.1443376   1.2247449  )
       416           Au  tau( 416) = (   0.0833333   0.4330127   1.2247449  )
       417           Au  tau( 417) = (   0.0833333   1.0103630   1.2247449  )
       418           Au  tau( 418) = (   0.2500000   0.1443376   1.2247449  )
       419           Au  tau( 419) = (   0.2500000   0.4330127   1.2247449  )
       420           Au  tau( 420) = (   0.4166667   0.1443376   1.2247449  )
       421           Au  tau( 421) = (   0.4166667   0.7216879   1.2247449  )
       422           Au  tau( 422) = (   0.5833333   0.1443376   1.2247449  )
       423           Au  tau( 423) = (   0.5833333   0.7216879   1.2247449  )
       424           Au  tau( 424) = (   0.7500000   0.1443376   1.2247449  )
       425           Au  tau( 425) = (   0.9166667   0.4330127   1.2247449  )
       426           Au  tau( 426) = (   0.5833333   1.0103630   1.2247449  )
       427           Au  tau( 427) = (   0.7500000   1.0103630   1.2247449  )
       428           Au  tau( 428) = (   0.9166667   1.0103630   1.2247449  )
       429           Au  tau( 429) = (   0.2500000   1.0103630   1.2247449  )
       430           Au  tau( 430) = (   0.4166667   1.0103630   1.2247449  )
       431           Au  tau( 431) = (   0.7500000   0.7216879   1.2247449  )
       432           Au  tau( 432) = (   0.9166667   0.7216879   1.2247449  )

     number of k points=     4  Marzari-Vanderbilt smearing, width (Ry)=  0.0500
                       cart. coord. in units 2pi/alat
        k(    1) = (   0.1250000   0.1082532   0.0000000), wk =   0.5000000
        k(    2) = (   0.1250000   0.3247595   0.0000000), wk =   0.5000000
        k(    3) = (   0.3750000   0.1082532   0.0000000), wk =   0.5000000
        k(    4) = (   0.3750000   0.3247595   0.0000000), wk =   0.5000000

     Dense  grid:  8550627 G-vectors     FFT dimensions: ( 200, 240, 360)

     Smooth grid:  2643085 G-vectors     FFT dimensions: ( 135, 160, 243)

     Estimated max dynamical RAM per process >       5.85 GB

     Estimated total dynamical RAM >     280.99 GB

     Initial potential from superposition of free atoms

     starting charge 4746.98365, renormalised to 4752.00000

     negative rho (up, down):  1.152E+01 0.000E+00
     Starting wfcs are 3888 randomized atomic wfcs

     total cpu time spent up to now is      118.5 secs

     Self-consistent Calculation

     iteration #  1     ecut=    40.00 Ry     beta= 0.70
     Davidson diagonalization with overlap
     ethr =  1.00E-02,  avg # of iterations =  3.0

     Threshold (ethr) on eigenvalues was too large:
     Diagonalizing with lowered threshold

     Davidson diagonalization with overlap
     ethr =  3.34E-04,  avg # of iterations =  3.2

     negative rho (up, down):  1.095E+01 0.000E+00

     total cpu time spent up to now is      722.1 secs

     total energy              =  -44077.60694853 Ry
     estimated scf accuracy    <      18.95524452 Ry

     iteration #  2     ecut=    40.00 Ry     beta= 0.70
     Davidson diagonalization with overlap
     ethr =  3.99E-04,  avg # of iterations =  1.2

     negative rho (up, down):  1.157E+01 0.000E+00

     total cpu time spent up to now is      961.6 secs

     total energy              =  -44078.47283393 Ry
     estimated scf accuracy    <       8.44552535 Ry

     iteration #  3     ecut=    40.00 Ry     beta= 0.70
     Davidson diagonalization with overlap
     ethr =  1.78E-04,  avg # of iterations =  3.0

     negative rho (up, down):  1.215E+01 0.000E+00

     total cpu time spent up to now is     1230.4 secs

     total energy              =  -44078.42258433 Ry
     estimated scf accuracy    <       4.94695379 Ry

     iteration #  4     ecut=    40.00 Ry     beta= 0.70
     Davidson diagonalization with overlap
     ethr =  1.04E-04,  avg # of iterations = 16.2

     negative rho (up, down):  1.214E+01 0.000E+00

     total cpu time spent up to now is     1668.2 secs

     total energy              =  -44078.34582809 Ry
     estimated scf accuracy    <       2.42306679 Ry

     iteration #  5     ecut=    40.00 Ry     beta= 0.70
     Davidson diagonalization with overlap
     c_bands:  1 eigenvalues not converged
     ethr =  5.10E-05,  avg # of iterations = 19.2

     negative rho (up, down):  1.185E+01 0.000E+00

     total cpu time spent up to now is     2101.1 secs

     total energy              =  -44078.30791073 Ry
     estimated scf accuracy    <       1.48513687 Ry

     iteration #  6     ecut=    40.00 Ry     beta= 0.70
     Davidson diagonalization with overlap
     c_bands:  2 eigenvalues not converged
     ethr =  3.13E-05,  avg # of iterations = 16.2

     negative rho (up, down):  1.186E+01 0.000E+00

     total cpu time spent up to now is     2483.3 secs

     total energy              =  -44078.27779453 Ry
     estimated scf accuracy    <       1.43212011 Ry

     iteration #  7     ecut=    40.00 Ry     beta= 0.70
     Davidson diagonalization with overlap
     ethr =  3.01E-05,  avg # of iterations =  4.0

     negative rho (up, down):  1.180E+01 0.000E+00

     total cpu time spent up to now is     2829.9 secs

     total energy              =  -44078.34828362 Ry
     estimated scf accuracy    <       1.48280556 Ry

     iteration #  8     ecut=    40.00 Ry     beta= 0.70
     Davidson diagonalization with overlap
     ethr =  3.01E-05,  avg # of iterations =  1.5

     negative rho (up, down):  1.176E+01 0.000E+00

     total cpu time spent up to now is     3072.7 secs

     total energy              =  -44078.45431588 Ry
     estimated scf accuracy    <       1.39687093 Ry

     iteration #  9     ecut=    40.00 Ry     beta= 0.70
     Davidson diagonalization with overlap
     ethr =  2.94E-05,  avg # of iterations =  3.5

     negative rho (up, down):  1.219E+01 0.000E+00

     total cpu time spent up to now is     3357.6 secs

     total energy              =  -44077.63642066 Ry
     estimated scf accuracy    <       4.70561185 Ry

     iteration # 10     ecut=    40.00 Ry     beta= 0.70
     Davidson diagonalization with overlap
     c_bands:  4 eigenvalues not converged
     c_bands:  5 eigenvalues not converged
     c_bands:  1 eigenvalues not converged
     ethr =  2.94E-05,  avg # of iterations = 19.2

     negative rho (up, down):  1.246E+01 0.000E+00

     total cpu time spent up to now is     3994.6 secs

     total energy              =  -44078.84325787 Ry
     estimated scf accuracy    <       6.37671599 Ry

     iteration # 11     ecut=    40.00 Ry     beta= 0.70
     Davidson diagonalization with overlap
     ethr =  2.94E-05,  avg # of iterations =  8.8

     negative rho (up, down):  1.254E+01 0.000E+00

     total cpu time spent up to now is     4309.3 secs

     total energy              =  -44078.67899599 Ry
     estimated scf accuracy    <      10.51199547 Ry

     iteration # 12     ecut=    40.00 Ry     beta= 0.70
     Davidson diagonalization with overlap
     ethr =  2.94E-05,  avg # of iterations =  1.8

     negative rho (up, down):  1.254E+01 0.000E+00

     total cpu time spent up to now is     4567.5 secs

     total energy              =  -44078.61223157 Ry
     estimated scf accuracy    <       7.43924897 Ry

     iteration # 13     ecut=    40.00 Ry     beta= 0.70
     Davidson diagonalization with overlap
     ethr =  2.94E-05,  avg # of iterations =  1.0

     negative rho (up, down):  1.237E+01 0.000E+00

     total cpu time spent up to now is     4791.8 secs

     total energy              =  -44077.93582409 Ry
     estimated scf accuracy    <       6.35515230 Ry

     iteration # 14     ecut=    40.00 Ry     beta= 0.70
     Davidson diagonalization with overlap
     ethr =  2.94E-05,  avg # of iterations =  5.5

     negative rho (up, down):  1.250E+01 0.000E+00

     total cpu time spent up to now is     5113.8 secs

     total energy              =  -44078.16947946 Ry
     estimated scf accuracy    <       0.28920583 Ry

     iteration # 15     ecut=    40.00 Ry     beta= 0.70
     Davidson diagonalization with overlap
     c_bands:  3 eigenvalues not converged
     ethr =  6.09E-06,  avg # of iterations = 18.2

     negative rho (up, down):  1.212E+01 0.000E+00

     total cpu time spent up to now is     5576.5 secs

     total energy              =  -44078.06681728 Ry
     estimated scf accuracy    <       0.62577242 Ry

     iteration # 16     ecut=    40.00 Ry     beta= 0.70
     Davidson diagonalization with overlap
     c_bands:  1 eigenvalues not converged
     ethr =  6.09E-06,  avg # of iterations = 14.2

     negative rho (up, down):  1.196E+01 0.000E+00

     total cpu time spent up to now is     6359.7 secs

     total energy              =  -44078.21103545 Ry
     estimated scf accuracy    <       0.37125328 Ry

     iteration # 17     ecut=    40.00 Ry     beta= 0.70
     Davidson diagonalization with overlap
     ethr =  6.09E-06,  avg # of iterations =  3.2

     negative rho (up, down):  1.201E+01 0.000E+00

     total cpu time spent up to now is     6629.6 secs

     total energy              =  -44078.16403043 Ry
     estimated scf accuracy    <       0.53439023 Ry

     iteration # 18     ecut=    40.00 Ry     beta= 0.70
     Davidson diagonalization with overlap
     ethr =  6.09E-06,  avg # of iterations =  3.5

     negative rho (up, down):  1.190E+01 0.000E+00

     total cpu time spent up to now is     6912.8 secs

     total energy              =  -44078.14194464 Ry
     estimated scf accuracy    <       0.33289730 Ry

     iteration # 19     ecut=    40.00 Ry     beta= 0.70
     Davidson diagonalization with overlap
     ethr =  6.09E-06,  avg # of iterations =  5.2

     negative rho (up, down):  1.182E+01 0.000E+00

     total cpu time spent up to now is     7198.2 secs

     total energy              =  -44078.13983705 Ry
     estimated scf accuracy    <       0.09676954 Ry

     iteration # 20     ecut=    40.00 Ry     beta= 0.70
     Davidson diagonalization with overlap
     c_bands:  1 eigenvalues not converged
     ethr =  2.04E-06,  avg # of iterations = 15.2

     negative rho (up, down):  1.177E+01 0.000E+00

     total cpu time spent up to now is     7615.5 secs

     total energy              =  -44078.13881633 Ry
     estimated scf accuracy    <       0.02531375 Ry

     iteration # 21     ecut=    40.00 Ry     beta= 0.70
     Davidson diagonalization with overlap
     ethr =  5.33E-07,  avg # of iterations = 11.5

     negative rho (up, down):  1.176E+01 0.000E+00

     total cpu time spent up to now is     7974.9 secs

     total energy              =  -44078.13988188 Ry
     estimated scf accuracy    <       0.00094001 Ry

     iteration # 22     ecut=    40.00 Ry     beta= 0.70
     Davidson diagonalization with overlap
     c_bands:  1 eigenvalues not converged
     ethr =  1.98E-08,  avg # of iterations = 10.0

     negative rho (up, down):  1.176E+01 0.000E+00

     total cpu time spent up to now is     8436.4 secs

     total energy              =  -44078.14010189 Ry
     estimated scf accuracy    <       0.00028976 Ry

     iteration # 23     ecut=    40.00 Ry     beta= 0.70
     Davidson diagonalization with overlap
     ethr =  6.10E-09,  avg # of iterations =  2.2

     negative rho (up, down):  1.175E+01 0.000E+00

     total cpu time spent up to now is     8710.2 secs

     total energy              =  -44078.14016932 Ry
     estimated scf accuracy    <       0.00011840 Ry

     iteration # 24     ecut=    40.00 Ry     beta= 0.70
     Davidson diagonalization with overlap
     ethr =  2.49E-09,  avg # of iterations =  3.0

     negative rho (up, down):  1.175E+01 0.000E+00

     total cpu time spent up to now is     9048.0 secs

     total energy              =  -44078.14018956 Ry
     estimated scf accuracy    <       0.00000758 Ry

     iteration # 25     ecut=    40.00 Ry     beta= 0.70
     Davidson diagonalization with overlap
     ethr =  1.59E-10,  avg # of iterations =  4.0

     negative rho (up, down):  1.175E+01 0.000E+00

     total cpu time spent up to now is     9430.0 secs

     total energy              =  -44078.14018459 Ry
     estimated scf accuracy    <       0.00009938 Ry

     iteration # 26     ecut=    40.00 Ry     beta= 0.70
     Davidson diagonalization with overlap
     ethr =  1.59E-10,  avg # of iterations =  3.2

     negative rho (up, down):  1.175E+01 0.000E+00

     total cpu time spent up to now is     9782.4 secs

     total energy              =  -44078.14019378 Ry
     estimated scf accuracy    <       0.00001798 Ry

     iteration # 27     ecut=    40.00 Ry     beta= 0.70
     Davidson diagonalization with overlap
     ethr =  1.59E-10,  avg # of iterations =  2.8

     negative rho (up, down):  1.175E+01 0.000E+00

     total cpu time spent up to now is    10060.7 secs

     End of self-consistent calculation

          k = 0.1250 0.1083 0.0000 (330335 PWs)   bands (ev):

    -0.8184  -0.4825  -0.4767  -0.3731  -0.2666  -0.1472  -0.0895  -0.0570
    -0.0399   0.0202   0.0629   0.1474   0.2078   0.2353   0.2658   0.3414
     0.4004   0.4463   0.4619   0.5184   0.5430   0.5962   0.6023   0.7004
     0.7097   0.7367   0.8849   0.9108   0.9154   0.9200   0.9699   0.9867
     1.0154   1.0411   1.1038   1.1199   1.1347   1.1664   1.1717   1.1993
     1.2426   1.2498   1.2682   1.2862   1.2895   1.2927   1.3021   1.4026
     1.4298   1.4320   1.4385   1.4417   1.4559   1.4564   1.4593   1.4812
     1.4990   1.5084   1.5207   1.5211   1.5244   1.5364   1.5603   1.5638
     1.5781   1.6022   1.6084   1.6099   1.6126   1.6141   1.6142   1.6230
     1.6426   1.6519   1.6541   1.6656   1.6873   1.6955   1.7078   1.7239
     1.7355   1.7510   1.7586   1.7598   1.7602   1.7655   1.7717   1.7842
     1.7974   1.8130   1.8268   1.8322   1.8399   1.8428   1.8452   1.8487
     1.8499   1.8503   1.8512   1.8631   1.8642   1.8666   1.8681   1.8886
     1.9053   1.9053   1.9092   1.9124   1.9260   1.9276   1.9318   1.9411
     1.9475   1.9558   1.9560   1.9571   1.9675   1.9680   1.9803   1.9823
     1.9852   1.9917   1.9988   2.0115   2.0131   2.0161   2.0175   2.0213
     2.0266   2.0280   2.0324   2.0358   2.0414   2.0443   2.0453   2.0456
     2.0516   2.0615   2.0655   2.0681   2.0761   2.0817   2.0937   2.0978
     2.1008   2.1024   2.1189   2.1195   2.1200   2.1232   2.1232   2.1237
     2.1248   2.1253   2.1277   2.1293   2.1377   2.1409   2.1443   2.1504
     2.1509   2.1522   2.1555   2.1572   2.1587   2.1606   2.1642   2.1654
     2.1662   2.1764   2.1788   2.1824   2.1828   2.1958   2.2033   2.2043
     2.2102   2.2120   2.2130   2.2159   2.2188   2.2193   2.2193   2.2197
     2.2233   2.2266   2.2276   2.2326   2.2379   2.2413   2.2435   2.2449
     2.2479   2.2509   2.2580   2.2600   2.2613   2.2635   2.2686   2.2764
     2.2905   2.2920   2.2984   2.2991   2.2999   2.3024   2.3072   2.3081
     2.3086   2.3098   2.3108   2.3115   2.3124   2.3157   2.3201   2.3210
     2.3250   2.3256   2.3263   2.3283   2.3284   2.3335   2.3345   2.3436
     2.3467   2.3514   2.3534   2.3554   2.3598   2.3634   2.3670   2.3722
     2.3728   2.3756   2.3860   2.3866   2.3883   2.3898   2.3906   2.3925
     2.3942   2.3992   2.4024   2.4125   2.4128   2.4130   2.4158   2.4161
     2.4259   2.4266   2.4309   2.4341   2.4419   2.4434   2.4443   2.4463
     2.4469   2.4484   2.4497   2.4500   2.4521   2.4522   2.4560   2.4606
     2.4652   2.4729   2.4740   2.4752   2.4766   2.4823   2.4851   2.4852
     2.4856   2.4890   2.4913   2.4953   2.4983   2.5038   2.5100   2.5116
     2.5119   2.5124   2.5185   2.5193   2.5200   2.5232   2.5233   2.5249
     2.5343   2.5369   2.5380   2.5415   2.5441   2.5459   2.5472   2.5514
     2.5541   2.5570   2.5723   2.5759   2.5781   2.5781   2.5784   2.5814
     2.5820   2.5823   2.5848   2.5851   2.5873   2.5937   2.5948   2.5952
     2.5963   2.5969   2.6019   2.6044   2.6059   2.6117   2.6177   2.6264
     2.6266   2.6285   2.6327   2.6330   2.6356   2.6362   2.6378   2.6393
     2.6445   2.6523   2.6613   2.6643   2.6654   2.6669   2.6742   2.6754
     2.6760   2.6802   2.6817   2.6827   2.6894   2.6904   2.6916   2.6959
     2.6970   2.7012   2.7024   2.7072   2.7140   2.7151   2.7152   2.7207
     2.7230   2.7255   2.7258   2.7268   2.7272   2.7299   2.7348   2.7368
     2.7400   2.7411   2.7412   2.7442   2.7444   2.7525   2.7543   2.7587
     2.7646   2.7673   2.7695   2.7700   2.7800   2.7802   2.7821   2.7829
     2.7830   2.7834   2.7867   2.7885   2.7888   2.7892   2.7953   2.7990
     2.8000   2.8038   2.8114   2.8137   2.8150   2.8169   2.8175   2.8187
     2.8213   2.8273   2.8287   2.8376   2.8402   2.8473   2.8481   2.8507
     2.8519   2.8536   2.8538   2.8598   2.8609   2.8611   2.8612   2.8628
     2.8699   2.8754   2.8828   2.8940   2.8960   2.8971   2.8989   2.9020
     2.9023   2.9041   2.9043   2.9057   2.9091   2.9142   2.9145   2.9153
     2.9250   2.9272   2.9306   2.9314   2.9332   2.9341   2.9357   2.9361
     2.9447   2.9503   2.9633   2.9647   2.9658   2.9662   2.9685   2.9722
     2.9727   2.9766   2.9776   2.9985   3.0081   3.0099   3.0124   3.0132
     3.0163   3.0279   3.0282   3.0360   3.0378   3.0379   3.0392   3.0408
     3.0424   3.0545   3.0548   3.0622   3.0645   3.0684   3.0721   3.0799
     3.0807   3.0823   3.0852   3.0853   3.0921   3.0974   3.0977   3.0978
     3.0988   3.0992   3.1051   3.1092   3.1140   3.1179   3.1238   3.1262
     3.1269   3.1288   3.1323   3.1337   3.1409   3.1451   3.1536   3.1571
     3.1600   3.1622   3.1633   3.1736   3.1737   3.1757   3.1758   3.1758
     3.1794   3.1795   3.1829   3.1833   3.1853   3.1872   3.1895   3.1908
     3.1910   3.1937   3.1954   3.1978   3.2001   3.2005   3.2091   3.2212
     3.2236   3.2269   3.2305   3.2328   3.2359   3.2399   3.2403   3.2405
     3.2412   3.2418   3.2436   3.2523   3.2529   3.2594   3.2594   3.2598
     3.2611   3.2683   3.2687   3.2789   3.2806   3.2856   3.2885   3.2900
     3.2901   3.2902   3.2930   3.2961   3.2979   3.3005   3.3037   3.3054
     3.3078   3.3111   3.3135   3.3197   3.3200   3.3218   3.3254   3.3260
     3.3267   3.3268   3.3283   3.3284   3.3287   3.3305   3.3381   3.3389
     3.3413   3.3425   3.3441   3.3467   3.3509   3.3518   3.3527   3.3547
     3.3553   3.3556   3.3566   3.3586   3.3593   3.3637   3.3736   3.3751
     3.3781   3.3789   3.3818   3.3822   3.3859   3.3914   3.3921   3.3974
     3.3975   3.3986   3.3990   3.4034   3.4040   3.4158   3.4195   3.4215
     3.4253   3.4270   3.4283   3.4288   3.4360   3.4415   3.4420   3.4430
     3.4500   3.4500   3.4572   3.4573   3.4596   3.4598   3.4614   3.4657
     3.4668   3.4671   3.4681   3.4713   3.4731   3.4755   3.4757   3.4769
     3.4822   3.4851   3.4865   3.4866   3.4881   3.4915   3.4990   3.4999
     3.5006   3.5030   3.5046   3.5064   3.5086   3.5095   3.5115   3.5118
     3.5148   3.5160   3.5164   3.5170   3.5185   3.5208   3.5279   3.5295
     3.5317   3.5327   3.5356   3.5366   3.5463   3.5479   3.5480   3.5534
     3.5608   3.5627   3.5633   3.5686   3.5721   3.5721   3.5748   3.5769
     3.5786   3.5825   3.5879   3.5881   3.5888   3.5922   3.5933   3.5956
     3.5963   3.5982   3.5993   3.6015   3.6039   3.6053   3.6075   3.6080
     3.6084   3.6105   3.6176   3.6177   3.6218   3.6219   3.6233   3.6252
     3.6273   3.6331   3.6350   3.6360   3.6360   3.6424   3.6446   3.6484
     3.6503   3.6506   3.6510   3.6595   3.6601   3.6642   3.6667   3.6683
     3.6689   3.6729   3.6767   3.6768   3.6771   3.6812   3.6830   3.6889
     3.6897   3.6898   3.6904   3.6922   3.6959   3.6968   3.7018   3.7065
     3.7090   3.7094   3.7129   3.7170   3.7177   3.7194   3.7203   3.7242
     3.7254   3.7297   3.7311   3.7371   3.7383   3.7461   3.7532   3.7541
     3.7546   3.7566   3.7595   3.7606   3.7663   3.7694   3.7702   3.7736
     3.7781   3.7787   3.7792   3.7799   3.7812   3.7834   3.7838   3.7843
     3.7848   3.7917   3.7920   3.7952   3.8074   3.8173   3.8190   3.8201
     3.8215   3.8235   3.8252   3.8266   3.8281   3.8292   3.8337   3.8343
     3.8361   3.8407   3.8449   3.8451   3.8465   3.8468   3.8529   3.8529
     3.8532   3.8539   3.8556   3.8565   3.8572   3.8595   3.8605   3.8635
     3.8635   3.8662   3.8662   3.8668   3.8670   3.8672   3.8689   3.8694
     3.8732   3.8759   3.8789   3.8804   3.8861   3.8874   3.8874   3.8896
     3.8926   3.8939   3.8959   3.8963   3.8978   3.9024   3.9063   3.9067
     3.9081   3.9092   3.9118   3.9147   3.9149   3.9160   3.9164   3.9233
     3.9241   3.9274   3.9291   3.9292   3.9309   3.9312   3.9335   3.9335
     3.9338   3.9346   3.9371   3.9401   3.9462   3.9478   3.9478   3.9497
     3.9498   3.9544   3.9545   3.9546   3.9570   3.9618   3.9653   3.9673
     3.9695   3.9697   3.9706   3.9713   3.9726   3.9727   3.9761   3.9763
     3.9767   3.9810   3.9824   3.9830   3.9841   3.9883   3.9904   3.9909
     3.9922   3.9963   4.0017   4.0022   4.0033   4.0034   4.0063   4.0081
     4.0085   4.0085   4.0093   4.0116   4.0178   4.0193   4.0258   4.0265
     4.0278   4.0339   4.0361   4.0378   4.0378   4.0382   4.0441   4.0446
     4.0455   4.0474   4.0479   4.0492   4.0510   4.0515   4.0524   4.0527
     4.0528   4.0560   4.0592   4.0604   4.0615   4.0651   4.0667   4.0700
     4.0700   4.0714   4.0716   4.0763   4.0774   4.0785   4.0788   4.0790
     4.0792   4.0803   4.0811   4.0836   4.0850   4.0854   4.0860   4.0865
     4.0876   4.0892   4.0916   4.0931   4.0961   4.0991   4.1001   4.1016
     4.1023   4.1050   4.1072   4.1094   4.1097   4.1101   4.1110   4.1122
     4.1127   4.1129   4.1146   4.1149   4.1212   4.1251   4.1262   4.1270
     4.1276   4.1278   4.1282   4.1301   4.1322   4.1337   4.1346   4.1346
     4.1404   4.1422   4.1432   4.1445   4.1456   4.1472   4.1481   4.1487
     4.1494   4.1530   4.1532   4.1537   4.1557   4.1613   4.1628   4.1633
     4.1642   4.1648   4.1652   4.1679   4.1681   4.1687   4.1743   4.1750
     4.1755   4.1767   4.1804   4.1809   4.1815   4.1821   4.1823   4.1838
     4.1842   4.1857   4.1875   4.1901   4.1903   4.1913   4.1913   4.1928
     4.1933   4.1950   4.1969   4.1977   4.1978   4.2015   4.2024   4.2043
     4.2063   4.2074   4.2086   4.2093   4.2102   4.2106   4.2120   4.2140
     4.2156   4.2177   4.2196   4.2200   4.2217   4.2221   4.2230   4.2234
     4.2257   4.2273   4.2325   4.2337   4.2348   4.2362   4.2385   4.2436
     4.2439   4.2482   4.2512   4.2515   4.2521   4.2557   4.2569   4.2580
     4.2584   4.2586   4.2586   4.2616   4.2630   4.2641   4.2658   4.2667
     4.2675   4.2759   4.2764   4.2771   4.2778   4.2799   4.2811   4.2815
     4.2819   4.2850   4.2900   4.2910   4.2945   4.2953   4.2959   4.2966
     4.3004   4.3009   4.3017   4.3027   4.3038   4.3092   4.3102   4.3111
     4.3133   4.3144   4.3144   4.3176   4.3218   4.3246   4.3247   4.3275
     4.3278   4.3280   4.3317   4.3338   4.3417   4.3424   4.3428   4.3466
     4.3471   4.3477   4.3477   4.3501   4.3547   4.3557   4.3577   4.3579
     4.3609   4.3641   4.3651   4.3658   4.3664   4.3678   4.3688   4.3691
     4.3696   4.3707   4.3711   4.3740   4.3750   4.3752   4.3761   4.3790
     4.3796   4.3804   4.3824   4.3832   4.3840   4.3844   4.3847   4.3903
     4.3927   4.3929   4.3990   4.4035   4.4057   4.4066   4.4072   4.4087
     4.4104   4.4112   4.4144   4.4167   4.4280   4.4298   4.4322   4.4341
     4.4380   4.4400   4.4426   4.4432   4.4444   4.4494   4.4516   4.4519
     4.4529   4.4538   4.4553   4.4563   4.4566   4.4572   4.4573   4.4609
     4.4633   4.4639   4.4688   4.4700   4.4757   4.4775   4.4783   4.4792
     4.4800   4.4852   4.4892   4.4904   4.4910   4.4913   4.4930   4.4939
     4.4944   4.4983   4.4992   4.4998   4.5004   4.5017   4.5090   4.5121
     4.5130   4.5143   4.5145   4.5172   4.5181   4.5187   4.5266   4.5276
     4.5286   4.5287   4.5312   4.5318   4.5372   4.5402   4.5425   4.5456
     4.5458   4.5472   4.5508   4.5516   4.5601   4.5610   4.5618   4.5627
     4.5636   4.5654   4.5667   4.5699   4.5727   4.5732   4.5740   4.5871
     4.5881   4.5888   4.5896   4.5952   4.5995   4.5999   4.6011   4.6026
     4.6028   4.6055   4.6060   4.6072   4.6081   4.6099   4.6147   4.6163
     4.6202   4.6205   4.6219   4.6226   4.6268   4.6292   4.6350   4.6355
     4.6367   4.6367   4.6394   4.6433   4.6439   4.6445   4.6540   4.6558
     4.6569   4.6596   4.6599   4.6606   4.6610   4.6634   4.6640   4.6673
     4.6674   4.6719   4.6732   4.6734   4.6741   4.6743   4.6778   4.6804
     4.6808   4.6833   4.6839   4.6907   4.6909   4.6910   4.6925   4.6939
     4.6942   4.6991   4.7000   4.7038   4.7043   4.7072   4.7103   4.7128
     4.7129   4.7168   4.7177   4.7185   4.7200   4.7245   4.7274   4.7285
     4.7300   4.7319   4.7365   4.7378   4.7413   4.7437   4.7444   4.7514
     4.7518   4.7565   4.7579   4.7580   4.7594   4.7597   4.7597   4.7639
     4.7644   4.7655   4.7666   4.7731   4.7765   4.7793   4.7869   4.7875
     4.7921   4.7930   4.7944   4.7977   4.7988   4.8020   4.8027   4.8166
     4.8195   4.8221   4.8236   4.8244   4.8315   4.8342   4.8363   4.8363
     4.8367   4.8391   4.8458   4.8463   4.8538   4.8562   4.8576   4.8593
     4.8608   4.8609   4.8627   4.8635   4.8651   4.8659   4.8688   4.8793
     4.8797   4.8803   4.8873   4.8902   4.8917   4.8971   4.8976   4.9026
     4.9054   4.9061   4.9065   4.9070   4.9078   4.9114   4.9119   4.9121
     4.9131   4.9156   4.9163   4.9197   4.9274   4.9280   4.9291   4.9324
     4.9325   4.9365   4.9381   4.9392   4.9430   4.9437   4.9449   4.9455
     4.9470   4.9487   4.9515   4.9518   4.9520   4.9535   4.9590   4.9595
     4.9642   4.9649   4.9652   4.9668   4.9691   4.9703   4.9749   4.9800
     4.9810   4.9817   4.9878   4.9905   4.9920   5.0032   5.0047   5.0048
     5.0052   5.0054   5.0059   5.0071   5.0105   5.0106   5.0109   5.0120
     5.0122   5.0140   5.0196   5.0224   5.0247   5.0248   5.0258   5.0288
     5.0322   5.0323   5.0325   5.0329   5.0356   5.0361   5.0381   5.0458
     5.0498   5.0499   5.0500   5.0512   5.0559   5.0572   5.0576   5.0581
     5.0601   5.0605   5.0631   5.0632   5.0652   5.0667   5.0673   5.0714
     5.0719   5.0790   5.0803   5.0839   5.0869   5.0896   5.0931   5.0959
     5.1024   5.1037   5.1056   5.1064   5.1092   5.1114   5.1121   5.1122
     5.1198   5.1199   5.1237   5.1256   5.1332   5.1359   5.1373   5.1395
     5.1396   5.1400   5.1419   5.1424   5.1446   5.1508   5.1514   5.1534
     5.1572   5.1601   5.1620   5.1627   5.1652   5.1696   5.1704   5.1718
     5.1731   5.1737   5.1763   5.1772   5.1811   5.1817   5.1818   5.1822
     5.1824   5.1836   5.1869   5.1896   5.1916   5.1925   5.1984   5.1994
     5.2022   5.2025   5.2064   5.2075   5.2083   5.2108   5.2113   5.2144
     5.2152   5.2176   5.2206   5.2207   5.2248   5.2258   5.2259   5.2269
     5.2284   5.2294   5.2358   5.2376   5.2405   5.2429   5.2441   5.2461
     5.2478   5.2517   5.2527   5.2551   5.2569   5.2578   5.2618   5.2622
     5.2656   5.2663   5.2684   5.2693   5.2699   5.2714   5.2716   5.2718
     5.2727   5.2730   5.2749   5.2788   5.2823   5.2827   5.2835   5.2886
     5.2893   5.2940   5.2994   5.2999   5.3013   5.3047   5.3092   5.3092
     5.3119   5.3138   5.3145   5.3154   5.3185   5.3213   5.3215   5.3279
     5.3281   5.3284   5.3288   5.3346   5.3347   5.3352   5.3357   5.3387
     5.3393   5.3408   5.3411   5.3432   5.3434   5.3435   5.3467   5.3482
     5.3509   5.3531   5.3548   5.3575   5.3594   5.3619   5.3643   5.3662
     5.3691   5.3692   5.3694   5.3706   5.3720   5.3725   5.3739   5.3740
     5.3782   5.3790   5.3819   5.3850   5.3861   5.3865   5.3897   5.3913
     5.3930   5.3950   5.3960   5.3984   5.3991   5.3994   5.4030   5.4047
     5.4068   5.4160   5.4175   5.4235   5.4255   5.4268   5.4284   5.4294
     5.4377   5.4382   5.4384   5.4402   5.4407   5.4409   5.4416   5.4446
     5.4531   5.4553   5.4572   5.4575   5.4599   5.4627   5.4661   5.4693
     5.4695   5.4754   5.4759   5.4768   5.4791   5.4795   5.4798   5.4876
     5.4881   5.4969   5.5015   5.5025   5.5051   5.5069   5.5073   5.5077
     5.5084   5.5103   5.5126   5.5126   5.5159   5.5182   5.5186   5.5186
     5.5191   5.5199   5.5220   5.5222   5.5261   5.5269   5.5335   5.5365
     5.5372   5.5382   5.5395   5.5400   5.5401   5.5464   5.5468   5.5470
     5.5471   5.5489   5.5495   5.5498   5.5536   5.5538   5.5552   5.5553
     5.5559   5.5596   5.5600   5.5606   5.5686   5.5701   5.5710   5.5758
     5.5772   5.5805   5.5820   5.5846   5.5885   5.5913   5.5930   5.5940
     5.5947   5.5949   5.5954   5.5981   5.5985   5.5996   5.6004   5.6023
     5.6036   5.6057   5.6114   5.6144   5.6210   5.6234   5.6240   5.6290
     5.6302   5.6354   5.6406   5.6426   5.6435   5.6452   5.6454   5.6456
     5.6462   5.6509   5.6521   5.6551   5.6585   5.6601   5.6602   5.6668
     5.6719   5.6728   5.6749   5.6756   5.6767   5.6777   5.6804   5.6805
     5.6821   5.6834   5.6838   5.6852   5.6868   5.6948   5.6950   5.6979
     5.6987   5.7037   5.7071   5.7073   5.7112   5.7119   5.7141   5.7160
     5.7188   5.7226   5.7239   5.7251   5.7252   5.7259   5.7264   5.7282
     5.7283   5.7300   5.7371   5.7381   5.7381   5.7424   5.7429   5.7431
     5.7483   5.7567   5.7600   5.7619   5.7642   5.7682   5.7707   5.7712
     5.7715   5.7753   5.7776   5.7783   5.7811   5.7832   5.7887   5.7904
     5.7911   5.7925   5.7927   5.7946   5.7992   5.7993   5.7994   5.8001
     5.8068   5.8081   5.8082   5.8083   5.8164   5.8175   5.8215   5.8221
     5.8225   5.8271   5.8305   5.8345   5.8350   5.8373   5.8374   5.8387
     5.8398   5.8418   5.8425   5.8440   5.8446   5.8542   5.8573   5.8583
     5.8597   5.8597   5.8598   5.8598   5.8610   5.8625   5.8646   5.8673
     5.8688   5.8700   5.8764   5.8800   5.8858   5.8860   5.8916   5.8936
     5.8945   5.8946   5.8962   5.8995   5.9038   5.9040   5.9077   5.9115
     5.9137   5.9165   5.9166   5.9179   5.9184   5.9204   5.9206   5.9223
     5.9249   5.9252   5.9257   5.9275   5.9291   5.9295   5.9307   5.9310
     5.9318   5.9356   5.9360   5.9368   5.9425   5.9468   5.9471   5.9511
     5.9537   5.9537   5.9548   5.9554   5.9564   5.9592   5.9610   5.9666
     5.9706   5.9721   5.9743   5.9748   5.9773   5.9776   5.9791   5.9799
     5.9802   5.9803   5.9831   5.9882   5.9898   5.9902   5.9907   5.9920
     5.9985   5.9996   6.0009   6.0048   6.0093   6.0115   6.0168   6.0171
     6.0240   6.0247   6.0278   6.0295   6.0311   6.0342   6.0352   6.0367
     6.0372   6.0396   6.0399   6.0446   6.0449   6.0472   6.0495   6.0497
     6.0502   6.0507   6.0516   6.0561   6.0570   6.0572   6.0579   6.0579
     6.0590   6.0591   6.0606   6.0679   6.0692   6.0726   6.0740   6.0742
     6.0747   6.0750   6.0781   6.0783   6.0793   6.0873   6.0875   6.0883
     6.0898   6.0899   6.0903   6.0932   6.0947   6.0969   6.0976   6.0977
     6.1007   6.1011   6.1042   6.1055   6.1064   6.1071   6.1074   6.1091
     6.1103   6.1125   6.1125   6.1146   6.1168   6.1175   6.1177   6.1199
     6.1211   6.1217   6.1228   6.1330   6.1369   6.1384   6.1403   6.1412
     6.1428   6.1461   6.1463   6.1464   6.1477   6.1481   6.1482   6.1500
     6.1502   6.1523   6.1542   6.1543   6.1552   6.1574   6.1614   6.1620
     6.1620   6.1628   6.1650   6.1655   6.1673   6.1681   6.1688   6.1696
     6.1702   6.1707   6.1726   6.1727   6.1744   6.1790   6.1810   6.1814
     6.1835   6.1837   6.1850   6.1853   6.1863   6.1864   6.1880   6.1886
     6.1886   6.1897   6.1899   6.1922   6.1979   6.1990   6.1992   6.2021
     6.2025   6.2033   6.2056   6.2058   6.2065   6.2087   6.2089   6.2098
     6.2131   6.2131   6.2157   6.2171   6.2172   6.2181   6.2196   6.2204
     6.2228   6.2233   6.2235   6.2236   6.2275   6.2288   6.2296   6.2318
     6.2330   6.2331   6.2335   6.2341   6.2342   6.2351   6.2356   6.2362
     6.2378   6.2379   6.2381   6.2397   6.2403   6.2403   6.2424   6.2431
     6.2455   6.2477   6.2506   6.2510   6.2512   6.2524   6.2537   6.2545
     6.2560   6.2567   6.2603   6.2605   6.2612   6.2616   6.2631   6.2648
     6.2668   6.2676   6.2684   6.2684   6.2697   6.2719   6.2731   6.2732
     6.2741   6.2755   6.2759   6.2771   6.2796   6.2813   6.2837   6.2841
     6.2844   6.2848   6.2912   6.2923   6.2944   6.2982   6.2992   6.3034
     6.3072   6.3080   6.3108   6.3151   6.3171   6.3185   6.3195   6.3198
     6.3203   6.3216   6.3266   6.3267   6.3298   6.3304   6.3305   6.3306
     6.3312   6.3316   6.3327   6.3327   6.3362   6.3366   6.3371   6.3385
     6.3421   6.3434   6.3470   6.3473   6.3484   6.3494   6.3513   6.3513
     6.3528   6.3538   6.3567   6.3605   6.3636   6.3648   6.3650   6.3683
     6.3684   6.3712   6.3726   6.3743   6.3749   6.3754   6.3759   6.3760
     6.3779   6.3807   6.3808   6.3813   6.3847   6.3874   6.3929   6.3946
     6.3979   6.3994   6.4000   6.4004   6.4006   6.4009   6.4062   6.4065
     6.4086   6.4097   6.4103   6.4126   6.4134   6.4145   6.4258   6.4270
     6.4298   6.4319   6.4329   6.4338   6.4350   6.4359   6.4364   6.4389
     6.4423   6.4426   6.4428   6.4439   6.4483   6.4514   6.4524   6.4539
     6.4559   6.4573   6.4606   6.4608   6.4629   6.4640   6.4649   6.4649
     6.4685   6.4700   6.4706   6.4710   6.4745   6.4753   6.4791   6.4811
     6.4852   6.4864   6.4908   6.4924   6.4935   6.4964   6.5007   6.5086
     6.5111   6.5136   6.5149   6.5151   6.5158   6.5185   6.5287   6.5318
     6.5348   6.5363   6.5367   6.5372   6.5381   6.5403   6.5462   6.5465
     6.5476   6.5479   6.5489   6.5491   6.5494   6.5499   6.5506   6.5537
     6.5544   6.5596   6.5683   6.5696   6.5706   6.5738   6.5745   6.5758
     6.5767   6.5846   6.5851   6.5865   6.5873   6.5879   6.5897   6.5901
     6.5961   6.5980   6.5984   6.5990   6.5992   6.5994   6.5995   6.5997
     6.6008   6.6010   6.6032   6.6034   6.6064   6.6070   6.6087   6.6159
     6.6177   6.6208   6.6322   6.6356   6.6391   6.6400   6.6401   6.6406
     6.6449   6.6461   6.6478   6.6487   6.6555   6.6583   6.6607   6.6616
     6.6622   6.6651   6.6781   6.6856   6.7040   6.7063   6.7127   6.7168
     6.7192   6.7221   6.7249   6.7287   6.7374   6.7405   6.7577   6.7613
     6.7618   6.7748   6.7776   6.7930   6.7993   6.8163   6.8286   6.8329
     6.8336   6.8365   6.8393   6.8443   6.8505   6.8535   6.8710   6.8770
     6.8952   6.8969   6.8981   6.9046   6.9055   6.9126   6.9131   6.9182
     6.9634   6.9707   7.0213   7.0218   7.0304   7.0400   7.0408   7.0483
     7.0587   7.0698   7.0750   7.0923   7.0946   7.0964   7.1137   7.1158
     7.1172   7.1976   7.2297   7.2549   7.2804   7.2993   7.3127   7.3589
     7.3675   7.3841   7.3858   7.3888   7.4228   7.4353   7.4375   7.4391
     7.4818   7.5042   7.5070   7.5282   7.5490   7.5495   7.6080   7.6171
     7.6232   7.6362   7.6704   7.6728   7.7188   7.7262   7.7325   7.7370
     7.7387   7.7534   7.7612   7.7686   7.7885   7.7973   7.7981   7.8035
     7.8228   7.8409   7.8555   7.8677   7.8707   7.8795   7.8851   7.9039
     7.9137   7.9327   7.9967   8.0298   8.0484   8.0533   8.0565   8.0734
     8.1182   8.1461   8.1529   8.1581   8.1772   8.1805   8.1858   8.2082
     8.2134   8.2417   8.2498   8.2762   8.2800   8.3022   8.3285   8.3346
     8.3599   8.3991   8.4182   8.4185   8.4221   8.4369   8.4544   8.4647
     8.4783   8.5045   8.5194   8.5238   8.5314   8.5450   8.5568   8.5613
     8.5707   8.5801   8.5837   8.5841   8.5933   8.6105   8.6331   8.6538
     8.6926   8.7024   8.7267   8.7680   8.7842   8.7921   8.8081   8.8093
     8.8124   8.8254   8.8310   8.8403   8.8445   8.8710   8.9077   8.9175
     8.9317   8.9367   8.9371   8.9502   9.0105   9.0129   9.0203   9.0246
     9.0407   9.0541   9.0632   9.0688   9.0697   9.0956   9.1186   9.1576
     9.1892   9.2178   9.2293   9.2395   9.2478   9.2511   9.2622   9.2731
     9.2735   9.2870   9.3069   9.3075   9.3200   9.3259   9.3274   9.3284
     9.3582   9.3633   9.3841   9.3853   9.3881   9.4402   9.4417   9.4568
     9.5044   9.5472   9.5699   9.5922   9.5950   9.6043   9.6163   9.6325
     9.6420   9.6592   9.6718   9.6842   9.7047   9.7274   9.7414   9.7545
     9.7554   9.7595   9.7818   9.7890   9.7977   9.8052   9.8120   9.8212
     9.8226   9.8251   9.8285   9.8482   9.8593   9.8651   9.8795   9.8890
     9.9111   9.9638   9.9728  10.0097  10.0106  10.0143  10.0296  10.0460
    10.0517  10.0530  10.0801  10.0802  10.1039  10.1079  10.1091  10.1812
    10.1898  10.2545  10.2546  10.2716  10.3022  10.3126  10.3173  10.3540
    10.3544  10.3981  10.3991  10.4773  10.4776  10.4836  10.5076  10.5286
    10.5301  10.5331  10.5379  10.5385  10.5502  10.5693  10.6027  10.6307
    10.6320  10.6345  10.6502  10.6534  10.6535  10.6623  10.6688  10.6915
    10.7484  10.7719  10.7926  10.7977  10.8101  10.8235  10.8264  10.8423
    10.8478  10.8530  10.8571  10.8630  10.8761  10.9215  10.9564  10.9584
    10.9789  10.9801  10.9902  11.0174  11.0511  11.0571  11.0593  11.0716
    11.1166  11.1224  11.1249  11.1359  11.1410  11.1610  11.1750  11.1857
    11.1949  11.2107  11.2119  11.2171  11.2177  11.2256  11.2283  11.2309
    11.2413  11.2472  11.2644  11.2918  11.2985  11.3023  11.3054  11.3226
    11.3279  11.3312  11.3504  11.3548  11.3822  11.4054  11.4178  11.4224
    11.4239  11.4457  11.4700  11.4808  11.5090  11.5334  11.5360  11.5545
    11.5686  11.5895  11.6097  11.6425  11.6469  11.6816  11.6819  11.7128
    11.7204  11.7210  11.7227  11.7292  11.7357  11.8234  11.8269  11.8470
    11.8480  11.8548  11.8686  11.8963  11.8983  11.9139  11.9433  11.9450
    11.9765  12.0000  12.0128  12.0305  12.0433  12.0686  12.0687  12.0806
    12.1003  12.1112  12.1255  12.1397  12.1521  12.1562  12.2039  12.2341
    12.2487  12.2584  12.2616  12.2719  12.2775  12.2904  12.2929  12.3265
    12.3358  12.3383  12.3578  12.3623  12.3686  12.3705  12.3759  12.4176
    12.4437  12.4456  12.4460  12.4621  12.4626  12.5458  12.5528  12.5576
    12.5601  12.5762  12.5792  12.5904  12.5920  12.5928  12.6015  12.6129
    12.6184  12.6358  12.6359  12.6364  12.6444  12.6515  12.6556  12.6763
    12.6916  12.6939  12.7115  12.7142  12.7308  12.7321  12.7417  12.7424
    12.7591  12.7602  12.7765  12.7965  12.8179  12.8188  12.8255  12.8348
    12.8523  12.8846  12.8859  12.9019  12.9056  12.9209  12.9285  12.9672
    12.9949  13.0006  13.0089  13.0167  13.0213  13.0274  13.0300  13.0361
    13.0393  13.0455  13.0675  13.0789  13.0957  13.1176  13.1233  13.1311
    13.1436  13.1522  13.1772  13.1805  13.1808  13.2036  13.2312  13.2331
    13.2470  13.2709  13.2831  13.2855  13.2913  13.3092  13.3142  13.3307
    13.3824  13.3860  13.3905  13.4017  13.4136  13.4186  13.4280  13.4303
    13.4326  13.4657  13.4717  13.4739  13.5036  13.5064  13.5111  13.5341
    13.5499  13.5700  13.5752  13.5874  13.5919  13.6079  13.6097  13.6201
    13.6204  13.6515  13.6602  13.6740  13.6855  13.6857  13.6956  13.7062
    13.7163  13.7210  13.7293  13.7549  13.7640  13.7697  13.7713  13.7715
    13.7757  13.8006  13.8184  13.8185  13.8195  13.8247  13.8291  13.8303
    13.8326  13.8370  13.8621  13.8960  13.9034  13.9040  13.9133  13.9153
    13.9265  13.9380  13.9579  13.9731  13.9907  13.9954  13.9967  14.0051
    14.0243  14.0308  14.0311  14.0544  14.0577  14.0733  14.0855  14.1160
    14.1180  14.1198  14.1505  14.1516  14.1523  14.1569  14.1588  14.1629
    14.1634  14.1650  14.1875  14.1921  14.2051  14.2511  14.2532  14.2828
    14.2911  14.2961  14.3036  14.3121  14.3287  14.3300  14.3471  14.3720
    14.3824  14.3840  14.4017  14.4036  14.4065  14.4103  14.4234  14.4263
    14.4579  14.4595  14.4622  14.5044  14.5059  14.5122  14.5785  14.5843
    14.6061  14.6328  14.6484

          k = 0.1250 0.3248 0.0000 (330368 PWs)   bands (ev):

    -0.7615  -0.6488  -0.4207  -0.3197  -0.3099  -0.2137  -0.0393  -0.0068
     0.0119   0.0603   0.0751   0.1146   0.1833   0.2833   0.2875   0.3131
     0.3783   0.3949   0.4958   0.5926   0.5936   0.6343   0.6505   0.6782
     0.6968   0.7540   0.7569   0.7786   0.8416   0.9035   0.9192   0.9616
     1.0327   1.0619   1.0625   1.1037   1.1357   1.1551   1.1671   1.1738
     1.1949   1.2790   1.3078   1.3102   1.3201   1.3291   1.3462   1.3527
     1.3708   1.3857   1.4012   1.4199   1.4420   1.4496   1.4736   1.4892
     1.4899   1.5425   1.5446   1.5542   1.5814   1.5822   1.5854   1.5920
     1.5999   1.6068   1.6095   1.6254   1.6254   1.6298   1.6528   1.6542
     1.6565   1.6588   1.6608   1.6697   1.6758   1.6826   1.7027   1.7042
     1.7128   1.7182   1.7263   1.7405   1.7707   1.7858   1.8006   1.8063
     1.8072   1.8074   1.8181   1.8374   1.8455   1.8577   1.8603   1.8625
     1.8700   1.8726   1.8728   1.8765   1.8850   1.8888   1.8932   1.9074
     1.9090   1.9137   1.9161   1.9215   1.9297   1.9333   1.9383   1.9416
     1.9520   1.9561   1.9578   1.9594   1.9601   1.9664   1.9727   1.9824
     1.9847   1.9863   1.9874   1.9907   1.9930   2.0093   2.0160   2.0252
     2.0263   2.0266   2.0332   2.0371   2.0404   2.0461   2.0513   2.0574
     2.0601   2.0602   2.0604   2.0704   2.0726   2.0778   2.0797   2.0871
     2.0875   2.0923   2.1023   2.1174   2.1212   2.1214   2.1308   2.1365
     2.1391   2.1435   2.1450   2.1461   2.1462   2.1466   2.1468   2.1495
     2.1500   2.1550   2.1587   2.1593   2.1597   2.1626   2.1627   2.1634
     2.1644   2.1720   2.1737   2.1746   2.1863   2.1936   2.1965   2.2023
     2.2024   2.2026   2.2048   2.2102   2.2109   2.2112   2.2137   2.2151
     2.2160   2.2188   2.2231   2.2307   2.2313   2.2335   2.2371   2.2376
     2.2443   2.2449   2.2471   2.2525   2.2529   2.2542   2.2556   2.2565
     2.2584   2.2638   2.2726   2.2836   2.2854   2.2860   2.2886   2.2951
     2.2953   2.3003   2.3117   2.3158   2.3259   2.3274   2.3332   2.3350
     2.3369   2.3374   2.3403   2.3413   2.3422   2.3485   2.3490   2.3522
     2.3556   2.3608   2.3670   2.3670   2.3703   2.3718   2.3749   2.3788
     2.3801   2.3807   2.3840   2.3852   2.3859   2.3866   2.3879   2.3896
     2.3921   2.3928   2.3929   2.3954   2.3955   2.4069   2.4150   2.4247
     2.4327   2.4332   2.4391   2.4503   2.4506   2.4523   2.4529   2.4578
     2.4583   2.4594   2.4601   2.4611   2.4637   2.4656   2.4665   2.4700
     2.4704   2.4760   2.4760   2.4833   2.4895   2.4898   2.4969   2.5005
     2.5021   2.5032   2.5078   2.5083   2.5114   2.5133   2.5147   2.5168
     2.5213   2.5216   2.5227   2.5236   2.5282   2.5283   2.5297   2.5328
     2.5340   2.5414   2.5440   2.5445   2.5466   2.5508   2.5520   2.5575
     2.5605   2.5608   2.5664   2.5699   2.5723   2.5771   2.5775   2.5785
     2.5791   2.5884   2.5897   2.5928   2.5946   2.5958   2.6026   2.6078
     2.6082   2.6085   2.6087   2.6101   2.6111   2.6124   2.6125   2.6132
     2.6143   2.6171   2.6203   2.6229   2.6238   2.6353   2.6363   2.6434
     2.6468   2.6472   2.6474   2.6489   2.6502   2.6518   2.6521   2.6552
     2.6657   2.6685   2.6687   2.6757   2.6764   2.6771   2.6782   2.6795
     2.6802   2.6845   2.6850   2.6870   2.6892   2.6920   2.6930   2.6944
     2.6949   2.6954   2.7021   2.7041   2.7147   2.7159   2.7243   2.7289
     2.7318   2.7323   2.7341   2.7342   2.7347   2.7401   2.7416   2.7432
     2.7445   2.7485   2.7531   2.7585   2.7608   2.7616   2.7664   2.7768
     2.7791   2.7821   2.7892   2.7894   2.7899   2.7905   2.7922   2.7937
     2.7981   2.8036   2.8043   2.8056   2.8059   2.8155   2.8178   2.8239
     2.8276   2.8279   2.8283   2.8330   2.8365   2.8391   2.8415   2.8464
     2.8493   2.8505   2.8517   2.8521   2.8578   2.8603   2.8627   2.8642
     2.8693   2.8761   2.8812   2.8886   2.8934   2.8937   2.8942   2.8975
     2.8995   2.9006   2.9020   2.9053   2.9060   2.9098   2.9152   2.9175
[...]
     atom  202 type  1   force =    -0.00000115    0.00019542   -0.00054588
     atom  203 type  1   force =     0.00000000    0.00019526   -0.00054601
     atom  204 type  1   force =     0.00000000    0.00019518   -0.00054603
     atom  205 type  1   force =     0.00000000    0.00019520   -0.00054600
     atom  206 type  1   force =     0.00000114    0.00019547   -0.00054589
     atom  207 type  1   force =     0.00000114    0.00019539   -0.00054590
     atom  208 type  1   force =    -0.00000116    0.00019548   -0.00054589
     atom  209 type  1   force =    -0.00000115    0.00019539   -0.00054589
     atom  210 type  1   force =     0.00000000    0.00019512   -0.00054601
     atom  211 type  1   force =     0.00000000    0.00019527   -0.00054600
     atom  212 type  1   force =     0.00000000    0.00019516   -0.00054602
     atom  213 type  1   force =     0.00000000    0.00019520   -0.00054599
     atom  214 type  1   force =     0.00000072   -0.00018662    0.00042690
     atom  215 type  1   force =     0.00000115    0.00019542   -0.00054588
     atom  216 type  1   force =    -0.00000115    0.00019542   -0.00054588
     atom  217 type  1   force =     0.00000081    0.00018840   -0.00043008
     atom  218 type  1   force =    -0.00000081    0.00018840   -0.00043009
     atom  219 type  1   force =     0.00000000    0.00018778   -0.00042961
     atom  220 type  1   force =    -0.00000118   -0.00019411    0.00054398
     atom  221 type  1   force =     0.00000000   -0.00019520    0.00054307
     atom  222 type  1   force =     0.00000000   -0.00019521    0.00054306
     atom  223 type  1   force =    -0.00000000   -0.00019520    0.00054307
     atom  224 type  1   force =     0.00000082    0.00018833   -0.00043004
     atom  225 type  1   force =     0.00000081    0.00018834   -0.00043009
     atom  226 type  1   force =     0.00000081    0.00018834   -0.00043008
     atom  227 type  1   force =    -0.00000081    0.00018833   -0.00043004
     atom  228 type  1   force =    -0.00000081    0.00018834   -0.00043009
     atom  229 type  1   force =    -0.00000080    0.00018835   -0.00043008
     atom  230 type  1   force =     0.00000000    0.00018772   -0.00042956
     atom  231 type  1   force =     0.00000000    0.00018773   -0.00042960
     atom  232 type  1   force =     0.00000000    0.00018773   -0.00042963
     atom  233 type  1   force =     0.00000081    0.00018840   -0.00043009
     atom  234 type  1   force =     0.00000081    0.00018833   -0.00043004
     atom  235 type  1   force =     0.00000081    0.00018834   -0.00043009
     atom  236 type  1   force =     0.00000080    0.00018835   -0.00043008
     atom  237 type  1   force =    -0.00000081    0.00018840   -0.00043008
     atom  238 type  1   force =    -0.00000082    0.00018833   -0.00043004
     atom  239 type  1   force =    -0.00000081    0.00018834   -0.00043009
     atom  240 type  1   force =     0.00000000    0.00018778   -0.00042960
     atom  241 type  1   force =     0.00000000    0.00018771   -0.00042957
     atom  242 type  1   force =     0.00000000    0.00018773   -0.00042961
     atom  243 type  1   force =    -0.00000116   -0.00019411    0.00054398
     atom  244 type  1   force =    -0.00000117   -0.00019411    0.00054398
     atom  245 type  1   force =    -0.00000117   -0.00019415    0.00054394
     atom  246 type  1   force =     0.00000000   -0.00019520    0.00054305
     atom  247 type  1   force =     0.00000000   -0.00019524    0.00054301
     atom  248 type  1   force =     0.00000117   -0.00019411    0.00054398
     atom  249 type  1   force =     0.00000117   -0.00019412    0.00054397
     atom  250 type  1   force =     0.00000117   -0.00019411    0.00054397
     atom  251 type  1   force =     0.00000117   -0.00019415    0.00054394
     atom  252 type  1   force =    -0.00000117   -0.00019411    0.00054398
     atom  253 type  1   force =    -0.00000117   -0.00019412    0.00054397
     atom  254 type  1   force =    -0.00000117   -0.00019411    0.00054397
     atom  255 type  1   force =    -0.00000000   -0.00019521    0.00054306
     atom  256 type  1   force =    -0.00000000   -0.00019520    0.00054305
     atom  257 type  1   force =     0.00000118   -0.00019411    0.00054398
     atom  258 type  1   force =     0.00000116   -0.00019411    0.00054398
     atom  259 type  1   force =     0.00000117   -0.00019411    0.00054398
     atom  260 type  1   force =    -0.00000081    0.00018834   -0.00043008
     atom  261 type  1   force =     0.00000000    0.00018773   -0.00042961
     atom  262 type  1   force =    -0.00000117   -0.00019415    0.00054394
     atom  263 type  1   force =    -0.00000000   -0.00019524    0.00054301
     atom  264 type  1   force =     0.00000117   -0.00019415    0.00054394
     atom  265 type  1   force =     0.00000000    0.00045263    0.00049530
     atom  266 type  1   force =     0.00000000    0.00045259    0.00049523
     atom  267 type  1   force =     0.00000131    0.00045290    0.00049416
     atom  268 type  1   force =     0.00000131    0.00045283    0.00049409
     atom  269 type  1   force =    -0.00000130    0.00045289    0.00049415
     atom  270 type  1   force =     0.00000000    0.00045263    0.00049534
     atom  271 type  1   force =     0.00000130    0.00045289    0.00049415
     atom  272 type  1   force =    -0.00000026   -0.00028658    0.00072154
     atom  273 type  1   force =     0.00000000   -0.00028623    0.00072268
     atom  274 type  1   force =     0.00000027   -0.00028656    0.00072155
     atom  275 type  1   force =     0.00000000    0.00045260    0.00049523
     atom  276 type  1   force =     0.00000131    0.00045283    0.00049406
     atom  277 type  1   force =     0.00000130    0.00045286    0.00049408
     atom  278 type  1   force =    -0.00000130    0.00045283    0.00049407
     atom  279 type  1   force =    -0.00000130    0.00045285    0.00049408
     atom  280 type  1   force =     0.00000000    0.00045258    0.00049524
     atom  281 type  1   force =     0.00000000    0.00045261    0.00049525
     atom  282 type  1   force =     0.00000130    0.00045283    0.00049409
     atom  283 type  1   force =     0.00000130    0.00045283    0.00049407
     atom  284 type  1   force =     0.00000130    0.00045285    0.00049408
     atom  285 type  1   force =    -0.00000131    0.00045283    0.00049409
     atom  286 type  1   force =    -0.00000131    0.00045283    0.00049406
     atom  287 type  1   force =    -0.00000130    0.00045286    0.00049408
     atom  288 type  1   force =    -0.00000025   -0.00028657    0.00072146
     atom  289 type  1   force =    -0.00000026   -0.00028658    0.00072149
     atom  290 type  1   force =    -0.00000027   -0.00028661    0.00072152
     atom  291 type  1   force =     0.00000002   -0.00028623    0.00072261
     atom  292 type  1   force =     0.00000002   -0.00028620    0.00072263
     atom  293 type  1   force =     0.00000001   -0.00028624    0.00072267
     atom  294 type  1   force =     0.00000027   -0.00028658    0.00072147
     atom  295 type  1   force =     0.00000028   -0.00028658    0.00072152
     atom  296 type  1   force =     0.00000027   -0.00028663    0.00072154
     atom  297 type  1   force =    -0.00000027   -0.00028656    0.00072155
     atom  298 type  1   force =    -0.00000027   -0.00028658    0.00072147
     atom  299 type  1   force =    -0.00000028   -0.00028658    0.00072152
     atom  300 type  1   force =    -0.00000027   -0.00028663    0.00072154
     atom  301 type  1   force =    -0.00000000   -0.00028623    0.00072268
     atom  302 type  1   force =    -0.00000002   -0.00028623    0.00072261
     atom  303 type  1   force =    -0.00000002   -0.00028620    0.00072263
     atom  304 type  1   force =     0.00000026   -0.00028658    0.00072154
     atom  305 type  1   force =     0.00000025   -0.00028657    0.00072146
     atom  306 type  1   force =     0.00000026   -0.00028658    0.00072149
     atom  307 type  1   force =     0.00000000    0.00045258    0.00049521
     atom  308 type  1   force =    -0.00000130    0.00045283    0.00049409
     atom  309 type  1   force =     0.00000000    0.00045258    0.00049527
     atom  310 type  1   force =    -0.00000131    0.00045290    0.00049416
     atom  311 type  1   force =    -0.00000001   -0.00028624    0.00072267
     atom  312 type  1   force =     0.00000027   -0.00028661    0.00072152
     atom  313 type  1   force =     0.00000039   -0.00056079    0.00382115
     atom  314 type  1   force =     0.00000004   -0.00056108    0.00381862
     atom  315 type  1   force =    -0.00000032   -0.00056078    0.00382121
     atom  316 type  1   force =     0.00000034   -0.00056096    0.00382126
     atom  317 type  1   force =    -0.00000004   -0.00056120    0.00381862
     atom  318 type  1   force =    -0.00000039   -0.00056095    0.00382120
     atom  319 type  1   force =     0.00000106    0.00053360   -0.00459318
     atom  320 type  1   force =    -0.00000100    0.00053364   -0.00459312
     atom  321 type  1   force =     0.00000000    0.00053326   -0.00459262
     atom  322 type  1   force =     0.00000100    0.00053364   -0.00459312
     atom  323 type  1   force =    -0.00000106    0.00053353   -0.00459315
     atom  324 type  1   force =     0.00000000    0.00053313   -0.00459263
     atom  325 type  1   force =     0.00000036   -0.00056088    0.00382123
     atom  326 type  1   force =     0.00000039   -0.00056095    0.00382120
     atom  327 type  1   force =     0.00000037   -0.00056075    0.00382120
     atom  328 type  1   force =     0.00000000   -0.00056118    0.00381867
     atom  329 type  1   force =     0.00000004   -0.00056120    0.00381862
     atom  330 type  1   force =    -0.00000033   -0.00056087    0.00382128
     atom  331 type  1   force =    -0.00000034   -0.00056096    0.00382126
     atom  332 type  1   force =     0.00000033   -0.00056087    0.00382128
     atom  333 type  1   force =     0.00000032   -0.00056078    0.00382121
     atom  334 type  1   force =    -0.00000000   -0.00056118    0.00381867
     atom  335 type  1   force =    -0.00000036   -0.00056088    0.00382123
     atom  336 type  1   force =     0.00000106    0.00053353   -0.00459315
     atom  337 type  1   force =     0.00000107    0.00053364   -0.00459317
     atom  338 type  1   force =     0.00000104    0.00053363   -0.00459311
     atom  339 type  1   force =    -0.00000102    0.00053352   -0.00459311
     atom  340 type  1   force =    -0.00000101    0.00053360   -0.00459317
     atom  341 type  1   force =     0.00000000    0.00053315   -0.00459257
     atom  342 type  1   force =     0.00000000    0.00053320   -0.00459264
     atom  343 type  1   force =     0.00000102    0.00053352   -0.00459311
     atom  344 type  1   force =     0.00000101    0.00053360   -0.00459317
     atom  345 type  1   force =    -0.00000107    0.00053364   -0.00459317
     atom  346 type  1   force =     0.00000000    0.00053325   -0.00459267
     atom  347 type  1   force =     0.00000002   -0.00056103    0.00381863
     atom  348 type  1   force =    -0.00000034   -0.00056074    0.00382125
     atom  349 type  1   force =     0.00000034   -0.00056074    0.00382125
     atom  350 type  1   force =    -0.00000004   -0.00056108    0.00381862
     atom  351 type  1   force =    -0.00000002   -0.00056103    0.00381863
     atom  352 type  1   force =    -0.00000039   -0.00056079    0.00382115
     atom  353 type  1   force =    -0.00000037   -0.00056075    0.00382120
     atom  354 type  1   force =    -0.00000101    0.00053363   -0.00459309
     atom  355 type  1   force =     0.00000000    0.00053326   -0.00459256
     atom  356 type  1   force =     0.00000101    0.00053363   -0.00459309
     atom  357 type  1   force =    -0.00000106    0.00053360   -0.00459318
     atom  358 type  1   force =    -0.00000104    0.00053363   -0.00459311
     atom  359 type  1   force =     0.00000000    0.00053326   -0.00459270
     atom  360 type  1   force =     0.00000000    0.00053325   -0.00459261
     atom  361 type  1   force =    -0.00000002   -0.00336055    0.01649597
     atom  362 type  1   force =     0.00000011   -0.00336052    0.01649611
     atom  363 type  1   force =     0.00000000   -0.00336194    0.01649933
     atom  364 type  1   force =    -0.00000016   -0.00336061    0.01649626
     atom  365 type  1   force =    -0.00000001   -0.00336063    0.01649610
     atom  366 type  1   force =     0.00000000   -0.00336189    0.01649924
     atom  367 type  1   force =    -0.00000052    0.00160384    0.00958758
     atom  368 type  1   force =     0.00000008    0.00160464    0.00959047
     atom  369 type  1   force =     0.00000057    0.00160366    0.00958779
     atom  370 type  1   force =    -0.00000057    0.00160366    0.00958779
     atom  371 type  1   force =    -0.00000007    0.00160466    0.00959064
     atom  372 type  1   force =     0.00000048    0.00160367    0.00958766
     atom  373 type  1   force =    -0.00000012   -0.00336056    0.01649618
     atom  374 type  1   force =     0.00000001   -0.00336063    0.01649610
     atom  375 type  1   force =    -0.00000004   -0.00336045    0.01649614
     atom  376 type  1   force =     0.00000015   -0.00336051    0.01649623
     atom  377 type  1   force =     0.00000016   -0.00336061    0.01649626
     atom  378 type  1   force =     0.00000000   -0.00336191    0.01649925
     atom  379 type  1   force =     0.00000000   -0.00336188    0.01649917
     atom  380 type  1   force =    -0.00000015   -0.00336051    0.01649623
     atom  381 type  1   force =    -0.00000011   -0.00336052    0.01649611
     atom  382 type  1   force =     0.00000012   -0.00336056    0.01649618
     atom  383 type  1   force =     0.00000000   -0.00336191    0.01649919
     atom  384 type  1   force =    -0.00000048    0.00160367    0.00958766
     atom  385 type  1   force =    -0.00000047    0.00160360    0.00958758
     atom  386 type  1   force =    -0.00000050    0.00160374    0.00958775
     atom  387 type  1   force =     0.00000007    0.00160466    0.00959064
     atom  388 type  1   force =     0.00000005    0.00160484    0.00959051
     atom  389 type  1   force =     0.00000054    0.00160371    0.00958781
     atom  390 type  1   force =     0.00000054    0.00160378    0.00958769
     atom  391 type  1   force =    -0.00000054    0.00160371    0.00958781
     atom  392 type  1   force =    -0.00000054    0.00160378    0.00958769
     atom  393 type  1   force =    -0.00000008    0.00160464    0.00959047
     atom  394 type  1   force =     0.00000047    0.00160360    0.00958758
     atom  395 type  1   force =     0.00000016   -0.00336047    0.01649620
     atom  396 type  1   force =     0.00000000   -0.00336175    0.01649933
     atom  397 type  1   force =    -0.00000016   -0.00336047    0.01649620
     atom  398 type  1   force =     0.00000002   -0.00336055    0.01649597
     atom  399 type  1   force =     0.00000004   -0.00336045    0.01649614
     atom  400 type  1   force =     0.00000000   -0.00336184    0.01649903
     atom  401 type  1   force =     0.00000000   -0.00336176    0.01649913
     atom  402 type  1   force =     0.00000002    0.00160470    0.00959061
     atom  403 type  1   force =     0.00000052    0.00160365    0.00958781
     atom  404 type  1   force =    -0.00000052    0.00160365    0.00958781
     atom  405 type  1   force =    -0.00000005    0.00160484    0.00959051
     atom  406 type  1   force =    -0.00000002    0.00160470    0.00959061
     atom  407 type  1   force =     0.00000052    0.00160384    0.00958758
     atom  408 type  1   force =     0.00000050    0.00160374    0.00958775
     atom  409 type  1   force =    -0.00000034    0.00164885   -0.02672619
     atom  410 type  1   force =     0.00000026    0.00164886   -0.02671976
     atom  411 type  1   force =     0.00000052    0.00164850   -0.02672587
     atom  412 type  1   force =    -0.00000052    0.00164850   -0.02672587
     atom  413 type  1   force =    -0.00000021    0.00164852   -0.02671978
     atom  414 type  1   force =     0.00000027    0.00164846   -0.02672592
     atom  415 type  1   force =    -0.00000027    0.00164846   -0.02672592
     atom  416 type  1   force =    -0.00000020    0.00164858   -0.02672639
     atom  417 type  1   force =    -0.00000034    0.00164895   -0.02672587
     atom  418 type  1   force =     0.00000004    0.00164878   -0.02671956
     atom  419 type  1   force =     0.00000021    0.00164852   -0.02671978
     atom  420 type  1   force =     0.00000039    0.00164868   -0.02672577
     atom  421 type  1   force =     0.00000039    0.00164865   -0.02672600
     atom  422 type  1   force =    -0.00000039    0.00164868   -0.02672577
     atom  423 type  1   force =    -0.00000039    0.00164865   -0.02672600
     atom  424 type  1   force =    -0.00000004    0.00164878   -0.02671956
     atom  425 type  1   force =     0.00000020    0.00164858   -0.02672639
     atom  426 type  1   force =    -0.00000042    0.00164877   -0.02672606
     atom  427 type  1   force =     0.00000006    0.00164889   -0.02671971
     atom  428 type  1   force =     0.00000034    0.00164895   -0.02672587
     atom  429 type  1   force =    -0.00000006    0.00164889   -0.02671971
     atom  430 type  1   force =     0.00000042    0.00164877   -0.02672606
     atom  431 type  1   force =    -0.00000026    0.00164886   -0.02671976
     atom  432 type  1   force =     0.00000034    0.00164885   -0.02672619

     Total force =     0.233237     Total SCF correction =     0.004577
 
     init_run     :    820.10s CPU    117.24s WALL (       1 calls)
     electrons    :  75680.00s CPU   9942.22s WALL (       1 calls)
     forces       :    329.02s CPU     61.42s WALL (       1 calls)

     Called by init_run:
     wfcinit      :    808.82s CPU    112.16s WALL (       1 calls)
     potinit      :      2.03s CPU      0.29s WALL (       1 calls)
     hinit0       :      2.50s CPU      0.74s WALL (       1 calls)

     Called by electrons:
     c_bands      :  70396.51s CPU   9217.33s WALL (      28 calls)
     sum_band     :   5152.30s CPU    703.39s WALL (      28 calls)
     v_of_rho     :     28.21s CPU      3.78s WALL (      28 calls)
     newd         :     95.06s CPU     16.83s WALL (      28 calls)
     mix_rho      :      8.12s CPU      1.08s WALL (      28 calls)

     Called by c_bands:
     init_us_2    :     78.86s CPU     10.19s WALL (     232 calls)
     cegterg      :  69905.03s CPU   9153.92s WALL (     113 calls)

     Called by *egterg:
     cdiaghg      :  25515.32s CPU   3393.17s WALL (     925 calls)
     h_psi        :  20538.19s CPU   2702.90s WALL (     933 calls)
     s_psi        :   4216.88s CPU    532.43s WALL (     933 calls)
     g_psi        :     21.23s CPU      2.67s WALL (     816 calls)

     Called by h_psi:
     h_psi:calbec :   4748.68s CPU    693.95s WALL (     933 calls)
     vloc_psi     :  11417.43s CPU   1453.20s WALL (     933 calls)
     add_vuspsi   :   4329.67s CPU    547.19s WALL (     933 calls)

     General routines
     calbec       :   7057.97s CPU   1035.30s WALL (    1061 calls)
     fft          :     20.14s CPU      2.69s WALL (     374 calls)
     ffts         :      3.57s CPU      0.47s WALL (      56 calls)
     fftw         :  13713.97s CPU   1745.52s WALL ( 1756872 calls)
     interpolate  :      2.50s CPU      0.33s WALL (      28 calls)
 
     Parallel routines
     fft_scatt_xy :    926.13s CPU    116.45s WALL ( 1757302 calls)
     fft_scatt_yz :   9941.44s CPU   1272.42s WALL ( 1757302 calls)
 
     PWSCF        :     21h20m CPU      2h48m WALL

 
   This run was terminated on:   1:15:36  23Sep2021            

=------------------------------------------------------------------------------=
   JOB DONE.
=------------------------------------------------------------------------------=
