
     Program PWSCF v.6.6 starts on  8Sep2021 at  4:37: 1 

     This program is part of the open-source Quantum ESPRESSO suite
     for quantum simulation of materials; please cite
         "P. Giannozzi et al., J. Phys.:Condens. Matter 21 395502 (2009);
         "P. Giannozzi et al., J. Phys.:Condens. Matter 29 465901 (2017);
          URL http://www.quantum-espresso.org", 
     in publications or presentations arising from this work. More details at
     http://www.quantum-espresso.org/quote

     Parallel version (MPI & OpenMP), running on     192 processor cores
     Number of MPI processes:                24
     Threads/MPI process:                     8

     MPI processes distributed on     4 nodes
     K-points division:     npool     =       2
     R & G space division:  proc/nbgrp/npool/nimage =      12
     Fft bands division:     nmany     =       1
     Reading input from ../inputs/input_ausurf_72

     Current dimensions of program PWSCF are:
     Max number of different atomic species (ntypx) = 10
     Max number of k-points (npk) =  40000
     Max angular momentum in pseudopotentials (lmaxx) =  3

     Subspace diagonalization in iterative solution of the eigenvalue problem:
     one sub-group per band group will be used
     ELPA distributed-memory algorithm (size of sub-group:  3*  3 procs)

     Found symmetry operation: I + ( -0.5000  0.0000  0.0000)
     This is a supercell, fractional translations are disabled
 
     Parallelization info
     --------------------
     sticks:   dense  smooth     PW     G-vecs:    dense   smooth      PW
     Min         500     227     62               118770    36705    5252
     Max         501     228     64               118781    36726    5259
     Sum        6001    2733    755              1425285   440649   63085
 

     Title: 
      Ausurf                                                                    


     bravais-lattice index     =            8
     lattice parameter (alat)  =      11.1494  a.u.
     unit-cell volume          =   12888.9871 (a.u.)^3
     number of atoms/cell      =           72
     number of atomic types    =            1
     number of electrons       =       792.00
     number of Kohn-Sham states=          475
     kinetic-energy cutoff     =      40.0000  Ry
     charge density cutoff     =     350.0000  Ry
     convergence threshold     =      1.0E-06
     mixing beta               =       0.7000
     number of iterations used =            8  TF        mixing
     Exchange-correlation=  SLA  PW   PBE  PBE
                           (   1   4   3   4   0   0   0)

     celldm(1)=  11.149384  celldm(2)=   1.732051  celldm(3)=   5.369150
     celldm(4)=   0.000000  celldm(5)=   0.000000  celldm(6)=   0.000000

     crystal axes: (cart. coord. in units of alat)
               a(1) = (   1.000000   0.000000   0.000000 )  
               a(2) = (   0.000000   1.732051   0.000000 )  
               a(3) = (   0.000000   0.000000   5.369150 )  

     reciprocal axes: (cart. coord. in units 2 pi/alat)
               b(1) = (  1.000000  0.000000  0.000000 )  
               b(2) = (  0.000000  0.577350  0.000000 )  
               b(3) = (  0.000000  0.000000  0.186249 )  


     PseudoPot. # 1 for Au read from file:
     /marconi/home/userexternal/czeni000/dft_src/pseudo/Au.pbe-nd-van.UPF
     MD5 check sum: deb5c07af10777505a79e28f5b4b4115
     Pseudo is Ultrasoft + core correction, Zval = 11.0
     Generated by new atomic code, or converted to UPF format
     Using radial grid of  985 points,  3 beta functions with: 
                l(1) =   1
                l(2) =   2
                l(3) =   2
     Q(r) pseudized with  8 coefficients,  rinner =    1.100   1.100   1.100
                                                       1.100   1.100

     atomic species   valence    mass     pseudopotential
        Au            11.00   196.96000     Au( 1.00)

      2 Sym. Ops. (no inversion) found



   Cartesian axes

     site n.     atom                  positions (alat units)
         1           Au  tau(   1) = (   0.0000000   0.0000000   0.0000000  )
         2           Au  tau(   2) = (   0.5000000   0.0000000   0.0000000  )
         3           Au  tau(   3) = (   0.0000000   0.8660254   0.0000000  )
         4           Au  tau(   4) = (   0.5000000   0.8660254   0.0000000  )
         5           Au  tau(   5) = (   0.2500000   0.1443376   0.4082483  )
         6           Au  tau(   6) = (   0.7500000   0.1443376   0.4082483  )
         7           Au  tau(   7) = (   0.2500000   1.0103631   0.4082483  )
         8           Au  tau(   8) = (   0.7500000   1.0103631   0.4082483  )
         9           Au  tau(   9) = (   0.5000000   0.5773503   0.4082483  )
        10           Au  tau(  10) = (   0.5000000   1.4433756   0.4082483  )
        11           Au  tau(  11) = (   1.0000000   0.5773503   0.4082483  )
        12           Au  tau(  12) = (   1.0000000   1.4433756   0.4082483  )
        13           Au  tau(  13) = (   0.5000000   0.2886751   0.8164966  )
        14           Au  tau(  14) = (   1.0000000   0.2886751   0.8164966  )
        15           Au  tau(  15) = (   0.2500000   0.7216878   0.8164966  )
        16           Au  tau(  16) = (   0.7500000   0.7216878   0.8164966  )
        17           Au  tau(  17) = (   0.5000000   1.1547005   0.8164966  )
        18           Au  tau(  18) = (   1.0000000   1.1547005   0.8164966  )
        19           Au  tau(  19) = (   0.2500000   1.5877132   0.8164966  )
        20           Au  tau(  20) = (   0.7500000   1.5877132   0.8164966  )
        21           Au  tau(  21) = (   0.0000000   0.0000000   1.2247449  )
        22           Au  tau(  22) = (   0.5000000   0.0000000   1.2247449  )
        23           Au  tau(  23) = (   0.2500000   0.4330127   1.2247449  )
        24           Au  tau(  24) = (   0.5000000   0.8660254   1.2247449  )
        25           Au  tau(  25) = (   0.2500000   1.2990381   1.2247449  )
        26           Au  tau(  26) = (   0.7500000   0.4330127   1.2247449  )
        27           Au  tau(  27) = (   0.7500000   1.2990381   1.2247449  )
        28           Au  tau(  28) = (   0.0000000   0.8660254   1.2247449  )
        29           Au  tau(  29) = (   0.2500000   1.0103631   1.6329932  )
        30           Au  tau(  30) = (   1.0000000   0.5773503   1.6329932  )
        31           Au  tau(  31) = (   0.2500000   0.1443376   1.6329932  )
        32           Au  tau(  32) = (   0.7500000   0.1443376   1.6329932  )
        33           Au  tau(  33) = (   0.7500000   1.0103631   1.6329932  )
        34           Au  tau(  34) = (   0.5000000   0.5773503   1.6329932  )
        35           Au  tau(  35) = (   0.5000000   1.4433756   1.6329932  )
        36           Au  tau(  36) = (   1.0000000   1.4433756   1.6329932  )
        37           Au  tau(  37) = (   0.5000000   0.2886751   2.0412415  )
        38           Au  tau(  38) = (   1.0000000   0.2886751   2.0412415  )
        39           Au  tau(  39) = (   0.2500000   0.7216878   2.0412415  )
        40           Au  tau(  40) = (   0.7500000   0.7216878   2.0412415  )
        41           Au  tau(  41) = (   0.7500000   1.5877132   2.0412415  )
        42           Au  tau(  42) = (   0.5000000   1.1547005   2.0412415  )
        43           Au  tau(  43) = (   1.0000000   1.1547005   2.0412415  )
        44           Au  tau(  44) = (   0.2500000   1.5877132   2.0412415  )
        45           Au  tau(  45) = (   0.0000000   0.0000000   2.4494897  )
        46           Au  tau(  46) = (   0.0000000   0.8660254   2.4494897  )
        47           Au  tau(  47) = (   0.5000000   0.0000000   2.4494897  )
        48           Au  tau(  48) = (   0.5000000   0.8660254   2.4494897  )
        49           Au  tau(  49) = (   0.2500000   0.4330127   2.4494897  )
        50           Au  tau(  50) = (   0.7500000   0.4330127   2.4494897  )
        51           Au  tau(  51) = (   0.2500000   1.2990381   2.4494897  )
        52           Au  tau(  52) = (   0.7500000   1.2990381   2.4494897  )
        53           Au  tau(  53) = (   1.0000000   1.4433756   2.8577380  )
        54           Au  tau(  54) = (   0.2500000   0.1443376   2.8577380  )
        55           Au  tau(  55) = (   0.2500000   1.0103631   2.8577380  )
        56           Au  tau(  56) = (   0.7500000   0.1443376   2.8577380  )
        57           Au  tau(  57) = (   0.7500000   1.0103631   2.8577380  )
        58           Au  tau(  58) = (   0.5000000   0.5773503   2.8577380  )
        59           Au  tau(  59) = (   0.5000000   1.4433756   2.8577380  )
        60           Au  tau(  60) = (   1.0000000   0.5773503   2.8577380  )
        61           Au  tau(  61) = (   0.7500000   1.5877132   3.2659863  )
        62           Au  tau(  62) = (   0.5000000   0.2886751   3.2659863  )
        63           Au  tau(  63) = (   0.5000000   1.1547005   3.2659863  )
        64           Au  tau(  64) = (   1.0000000   0.2886751   3.2659863  )
        65           Au  tau(  65) = (   1.0000000   1.1547005   3.2659863  )
        66           Au  tau(  66) = (   0.2500000   0.7216878   3.2659863  )
        67           Au  tau(  67) = (   0.2500000   1.5877132   3.2659863  )
        68           Au  tau(  68) = (   0.7500000   0.7216878   3.2659863  )
        69           Au  tau(  69) = (   0.2500000   0.4330127   3.6742346  )
        70           Au  tau(  70) = (   0.2500000   1.2990381   3.6742346  )
        71           Au  tau(  71) = (   0.7500000   0.4330127   3.6742346  )
        72           Au  tau(  72) = (   0.7500000   1.2990381   3.6742346  )

     number of k points=    18  Marzari-Vanderbilt smearing, width (Ry)=  0.0500
                       cart. coord. in units 2pi/alat
        k(    1) = (   0.0416667   0.0481125   0.0000000), wk =   0.1111111
        k(    2) = (   0.0416667   0.1443376   0.0000000), wk =   0.1111111
        k(    3) = (   0.0416667   0.2405626   0.0000000), wk =   0.1111111
        k(    4) = (   0.1250000   0.0481125   0.0000000), wk =   0.1111111
        k(    5) = (   0.1250000   0.1443376   0.0000000), wk =   0.1111111
        k(    6) = (   0.1250000   0.2405626   0.0000000), wk =   0.1111111
        k(    7) = (   0.2083333   0.0481125   0.0000000), wk =   0.1111111
        k(    8) = (   0.2083333   0.1443376   0.0000000), wk =   0.1111111
        k(    9) = (   0.2083333   0.2405626   0.0000000), wk =   0.1111111
        k(   10) = (   0.2916667   0.0481125   0.0000000), wk =   0.1111111
        k(   11) = (   0.2916667   0.1443376   0.0000000), wk =   0.1111111
        k(   12) = (   0.2916667   0.2405626   0.0000000), wk =   0.1111111
        k(   13) = (   0.3750000   0.0481125   0.0000000), wk =   0.1111111
        k(   14) = (   0.3750000   0.1443376   0.0000000), wk =   0.1111111
        k(   15) = (   0.3750000   0.2405626   0.0000000), wk =   0.1111111
        k(   16) = (   0.4583333   0.0481125   0.0000000), wk =   0.1111111
        k(   17) = (   0.4583333   0.1443376   0.0000000), wk =   0.1111111
        k(   18) = (   0.4583333   0.2405626   0.0000000), wk =   0.1111111

     Dense  grid:  1425285 G-vectors     FFT dimensions: (  72, 120, 360)

     Smooth grid:   440649 G-vectors     FFT dimensions: (  45,  80, 243)

     Estimated max dynamical RAM per process >     756.07 MB

     Estimated total dynamical RAM >      17.72 GB

     Initial potential from superposition of free atoms

     starting charge  791.16394, renormalised to  792.00000

     negative rho (up, down):  1.916E+00 0.000E+00
     Starting wfcs are  648 randomized atomic wfcs

     total cpu time spent up to now is       11.6 secs

     Self-consistent Calculation

     iteration #  1     ecut=    40.00 Ry     beta= 0.70
     Davidson diagonalization with overlap
     ethr =  1.00E-02,  avg # of iterations =  2.7

     Threshold (ethr) on eigenvalues was too large:
     Diagonalizing with lowered threshold

     Davidson diagonalization with overlap
     ethr =  3.34E-04,  avg # of iterations =  2.6

     negative rho (up, down):  1.820E+00 0.000E+00

     total cpu time spent up to now is       58.4 secs

     total energy              =   -7346.27263587 Ry
     estimated scf accuracy    <       3.14759288 Ry

     iteration #  2     ecut=    40.00 Ry     beta= 0.70
     Davidson diagonalization with overlap
     ethr =  3.97E-04,  avg # of iterations =  1.1

     negative rho (up, down):  1.926E+00 0.000E+00

     total cpu time spent up to now is       77.1 secs

     total energy              =   -7346.41234188 Ry
     estimated scf accuracy    <       1.40729400 Ry

     iteration #  3     ecut=    40.00 Ry     beta= 0.70
     Davidson diagonalization with overlap
     ethr =  1.78E-04,  avg # of iterations =  3.1

     negative rho (up, down):  2.029E+00 0.000E+00

     total cpu time spent up to now is       99.8 secs

     total energy              =   -7346.40394695 Ry
     estimated scf accuracy    <       0.82264445 Ry

     iteration #  4     ecut=    40.00 Ry     beta= 0.70
     Davidson diagonalization with overlap
     ethr =  1.04E-04,  avg # of iterations =  6.5

     negative rho (up, down):  2.026E+00 0.000E+00

     total cpu time spent up to now is      126.5 secs

     total energy              =   -7346.39077386 Ry
     estimated scf accuracy    <       0.40494612 Ry

     iteration #  5     ecut=    40.00 Ry     beta= 0.70
     Davidson diagonalization with overlap
     ethr =  5.11E-05,  avg # of iterations = 10.6

     negative rho (up, down):  1.974E+00 0.000E+00

     total cpu time spent up to now is      158.5 secs

     total energy              =   -7346.38490066 Ry
     estimated scf accuracy    <       0.24809769 Ry

     iteration #  6     ecut=    40.00 Ry     beta= 0.70
     Davidson diagonalization with overlap
     c_bands:  1 eigenvalues not converged
     ethr =  3.13E-05,  avg # of iterations =  8.8

     negative rho (up, down):  1.978E+00 0.000E+00

     total cpu time spent up to now is      189.8 secs

     total energy              =   -7346.37792140 Ry
     estimated scf accuracy    <       0.23648514 Ry

     iteration #  7     ecut=    40.00 Ry     beta= 0.70
     Davidson diagonalization with overlap
     c_bands:  1 eigenvalues not converged
     ethr =  2.99E-05,  avg # of iterations =  5.7

     negative rho (up, down):  1.986E+00 0.000E+00

     total cpu time spent up to now is      217.3 secs

     total energy              =   -7346.37010182 Ry
     estimated scf accuracy    <       0.24139617 Ry

     iteration #  8     ecut=    40.00 Ry     beta= 0.70
     Davidson diagonalization with overlap
     ethr =  2.99E-05,  avg # of iterations =  2.4

     negative rho (up, down):  2.025E+00 0.000E+00

     total cpu time spent up to now is      241.9 secs

     total energy              =   -7346.35148245 Ry
     estimated scf accuracy    <       0.17044550 Ry

     iteration #  9     ecut=    40.00 Ry     beta= 0.70
     Davidson diagonalization with overlap
     ethr =  2.15E-05,  avg # of iterations = 11.9

     negative rho (up, down):  2.013E+00 0.000E+00

     total cpu time spent up to now is      283.4 secs

     total energy              =   -7346.37519874 Ry
     estimated scf accuracy    <       0.25986937 Ry

     iteration # 10     ecut=    40.00 Ry     beta= 0.70
     Davidson diagonalization with overlap
     ethr =  2.15E-05,  avg # of iterations =  1.0

     negative rho (up, down):  2.030E+00 0.000E+00

     total cpu time spent up to now is      302.0 secs

     total energy              =   -7346.36210179 Ry
     estimated scf accuracy    <       0.16800831 Ry

     iteration # 11     ecut=    40.00 Ry     beta= 0.70
     Davidson diagonalization with overlap
     ethr =  2.12E-05,  avg # of iterations =  1.0

     negative rho (up, down):  2.039E+00 0.000E+00

     total cpu time spent up to now is      320.5 secs

     total energy              =   -7346.37553231 Ry
     estimated scf accuracy    <       0.07301339 Ry

     iteration # 12     ecut=    40.00 Ry     beta= 0.70
     Davidson diagonalization with overlap
     ethr =  9.22E-06,  avg # of iterations =  2.0

     negative rho (up, down):  2.072E+00 0.000E+00

     total cpu time spent up to now is      341.9 secs

     total energy              =   -7346.35287324 Ry
     estimated scf accuracy    <       0.21594449 Ry

     iteration # 13     ecut=    40.00 Ry     beta= 0.70
     Davidson diagonalization with overlap
     ethr =  9.22E-06,  avg # of iterations = 10.8

     negative rho (up, down):  2.027E+00 0.000E+00

     total cpu time spent up to now is      377.1 secs

     total energy              =   -7346.35090989 Ry
     estimated scf accuracy    <       0.02321504 Ry

     iteration # 14     ecut=    40.00 Ry     beta= 0.70
     Davidson diagonalization with overlap
     ethr =  2.93E-06,  avg # of iterations = 10.9

     negative rho (up, down):  2.014E+00 0.000E+00

     total cpu time spent up to now is      430.2 secs

     total energy              =   -7346.35985859 Ry
     estimated scf accuracy    <       0.05422649 Ry

     iteration # 15     ecut=    40.00 Ry     beta= 0.70
     Davidson diagonalization with overlap
     ethr =  2.93E-06,  avg # of iterations =  2.1

     negative rho (up, down):  1.995E+00 0.000E+00

     total cpu time spent up to now is      451.7 secs

     total energy              =   -7346.35439302 Ry
     estimated scf accuracy    <       0.03065345 Ry

     iteration # 16     ecut=    40.00 Ry     beta= 0.70
     Davidson diagonalization with overlap
     ethr =  2.93E-06,  avg # of iterations =  6.4

     negative rho (up, down):  1.973E+00 0.000E+00

     total cpu time spent up to now is      482.7 secs

     total energy              =   -7346.35668328 Ry
     estimated scf accuracy    <       0.00047919 Ry

     iteration # 17     ecut=    40.00 Ry     beta= 0.70
     Davidson diagonalization with overlap
     ethr =  6.05E-08,  avg # of iterations =  8.8

     negative rho (up, down):  1.960E+00 0.000E+00

     total cpu time spent up to now is      520.0 secs

     total energy              =   -7346.35650129 Ry
     estimated scf accuracy    <       0.00078252 Ry

     iteration # 18     ecut=    40.00 Ry     beta= 0.70
     Davidson diagonalization with overlap
     ethr =  6.05E-08,  avg # of iterations = 12.8

     negative rho (up, down):  1.958E+00 0.000E+00

     total cpu time spent up to now is      581.1 secs

     total energy              =   -7346.35662061 Ry
     estimated scf accuracy    <       0.00009150 Ry

     iteration # 19     ecut=    40.00 Ry     beta= 0.70
     Davidson diagonalization with overlap
     ethr =  1.16E-08,  avg # of iterations =  8.2

     negative rho (up, down):  1.957E+00 0.000E+00

     total cpu time spent up to now is      615.0 secs

     total energy              =   -7346.35667521 Ry
     estimated scf accuracy    <       0.00010846 Ry

     iteration # 20     ecut=    40.00 Ry     beta= 0.70
     Davidson diagonalization with overlap
     ethr =  1.16E-08,  avg # of iterations =  8.1

     negative rho (up, down):  1.957E+00 0.000E+00

     total cpu time spent up to now is      648.5 secs

     total energy              =   -7346.35669348 Ry
     estimated scf accuracy    <       0.00005480 Ry

     iteration # 21     ecut=    40.00 Ry     beta= 0.70
     Davidson diagonalization with overlap
     ethr =  6.92E-09,  avg # of iterations =  2.1

     negative rho (up, down):  1.957E+00 0.000E+00

     total cpu time spent up to now is      670.8 secs

     End of self-consistent calculation

          k = 0.0417 0.0481 0.0000 ( 55126 PWs)   bands (ev):

    -0.8129  -0.4712   0.0255   0.5492   0.6016   0.8363   0.9651   1.1252
     1.2161   1.2464   1.4435   1.5574   1.5650   1.5684   1.6036   1.6143
     1.6195   1.7229   1.8477   1.8506   1.8522   1.8546   1.8642   1.8683
     1.9219   2.0303   2.0337   2.0407   2.1221   2.1227   2.1255   2.1517
     2.1521   2.1636   2.1715   2.2258   2.2293   2.2383   2.2443   2.2807
     2.3148   2.3181   2.3230   2.3338   2.3503   2.3811   2.3916   2.4116
     2.4168   2.4303   2.4408   2.4760   2.4838   2.4888   2.4955   2.5152
     2.5246   2.5463   2.5802   2.6023   2.6235   2.6416   2.6673   2.6689
     2.6848   2.7238   2.7341   2.7591   2.7690   2.7907   2.8248   2.8574
     2.9327   2.9404   2.9613   2.9794   3.0563   3.0696   3.0815   3.0836
     3.1172   3.1480   3.1696   3.1762   3.1947   3.2140   3.2337   3.2617
     3.2912   3.3219   3.3247   3.3320   3.3443   3.3608   3.3696   3.3759
     3.4220   3.4497   3.4595   3.4758   3.4826   3.5091   3.5121   3.5481
     3.5630   3.5671   3.5869   3.6020   3.6077   3.6212   3.6470   3.6483
     3.6596   3.6848   3.6908   3.7321   3.7327   3.7657   3.7744   3.7790
     3.7921   3.7942   3.8015   3.8282   3.8526   3.8650   3.8698   3.8699
     3.8936   3.8953   3.9022   3.9074   3.9193   3.9262   3.9347   3.9389
     3.9496   3.9550   3.9553   3.9611   3.9636   3.9803   3.9878   3.9942
     4.0119   4.0263   4.0426   4.0732   4.0802   4.0869   4.0955   4.0993
     4.1082   4.1103   4.1178   4.1338   4.1400   4.1645   4.1655   4.1658
     4.1745   4.1755   4.1832   4.1890   4.1907   4.2008   4.2068   4.2186
     4.2378   4.2550   4.3004   4.3059   4.3147   4.3186   4.3220   4.3331
     4.3482   4.3580   4.3675   4.3706   4.3808   4.3830   4.3945   4.4298
     4.4315   4.4335   4.4527   4.4662   4.4688   4.4918   4.5100   4.5129
     4.5189   4.5252   4.5284   4.5337   4.5364   4.5974   4.6327   4.6593
     4.6928   4.6992   4.7087   4.7184   4.7254   4.7468   4.7516   4.7647
     4.7729   4.8138   4.8722   4.8812   4.8822   4.8920   4.8963   4.8992
     4.9030   4.9300   4.9598   4.9753   4.9811   4.9915   4.9992   5.0119
     5.0295   5.0308   5.0354   5.0607   5.0823   5.1088   5.1116   5.1244
     5.1282   5.1516   5.1541   5.1908   5.2014   5.2162   5.2236   5.2294
     5.2318   5.2363   5.2608   5.2616   5.2665   5.2704   5.2755   5.2831
     5.2964   5.3191   5.3271   5.3323   5.3344   5.3404   5.3474   5.3513
     5.3545   5.3754   5.4068   5.4200   5.4282   5.4318   5.4609   5.4794
     5.4889   5.4962   5.5165   5.5166   5.5401   5.5457   5.5512   5.5551
     5.5727   5.6063   5.6111   5.6415   5.6481   5.6787   5.6972   5.7000
     5.7304   5.7483   5.7568   5.7624   5.7908   5.8117   5.8308   5.8488
     5.8602   5.8656   5.8931   5.8976   5.9061   5.9256   5.9601   5.9771
     5.9781   5.9955   5.9966   6.0133   6.0744   6.0950   6.0979   6.1174
     6.1183   6.1340   6.1430   6.1659   6.1754   6.1797   6.1963   6.2015
     6.2071   6.2201   6.2316   6.2340   6.2347   6.2531   6.2599   6.2671
     6.2940   6.3037   6.3139   6.3279   6.3362   6.3460   6.3461   6.3477
     6.3609   6.3717   6.3763   6.3778   6.3788   6.3905   6.3924   6.3927
     6.3959   6.3981   6.3990   6.4287   6.4318   6.4325   6.4348   6.4387
     6.4518   6.4563   6.4652   6.4679   6.4866   6.5118   6.5127   6.5347
     6.5461   6.5487   6.5647   6.5715   6.5756   6.5879   6.5885   6.5961
     6.5993   6.6013   6.6087   6.6336   6.6386   6.6528   6.6707   6.6970
     6.6977   6.7197   6.7253   6.7570   6.7610   6.8341   6.8533   6.8765
     6.9129   6.9133   6.9559   7.0799   7.5267   7.6698   7.7396   7.7970
     7.7989   7.8522   8.0376   8.0478   8.1463   8.2410   8.2770   8.3597
     8.4535   8.4655   8.5508   8.5856   8.7138   8.7754   8.7833   8.7922
     8.9273   8.9469   8.9509   9.0405   9.0560   9.1044   9.1966   9.2729
     9.2778   9.2968   9.3532   9.4611   9.5886   9.6443   9.6612   9.7176
     9.7601   9.8307   9.9043   9.9110   9.9362   9.9944   9.9980  10.0744
    10.5296  10.6513  10.8572  10.8659  10.9822  11.0640  11.0768  11.1450
    11.2294  11.2592  11.2646  11.3283  11.3377  11.3826  11.4670  11.7285
    11.8214  11.8827  11.9532  12.0478  12.0587  12.0970  12.3382  12.3799
    12.4491  12.5512  12.6093  12.6163  12.6196  12.6452  12.7839  12.8468
    12.8750  13.2441  13.2845  13.3198  13.3837  13.4641  13.4915  13.6763
    13.6815  13.7256  13.8092  13.8229  13.8833  13.9536  13.9592  13.9904
    13.9954  13.9986  14.0080

          k = 0.0417 0.1443 0.0000 ( 55027 PWs)   bands (ev):

    -0.7121  -0.3720   0.1227   0.1367   0.4501   0.6974   0.9046   1.2203
     1.3073   1.4289   1.5339   1.5450   1.6053   1.6498   1.6506   1.6610
     1.6966   1.7920   1.8613   1.8865   1.8973   1.9035   1.9192   1.9251
     1.9444   2.0366   2.0574   2.0854   2.0993   2.1139   2.1520   2.1679
     2.1709   2.1738   2.1759   2.1997   2.2057   2.2133   2.2505   2.2573
     2.2769   2.2864   2.2877   2.2885   2.3123   2.3237   2.3385   2.3594
     2.3612   2.3626   2.4145   2.4229   2.4686   2.4862   2.4947   2.4997
     2.5089   2.5181   2.5196   2.5549   2.5683   2.5879   2.6430   2.6490
     2.6926   2.6954   2.7019   2.7022   2.7050   2.7114   2.7232   2.7433
     2.8036   2.8196   2.8705   2.8926   2.9248   3.0052   3.0106   3.0411
     3.0828   3.0890   3.1045   3.1304   3.1416   3.1628   3.2321   3.2378
     3.2489   3.2685   3.2917   3.3404   3.3500   3.3541   3.3745   3.4097
     3.4396   3.4520   3.4838   3.5019   3.5156   3.5243   3.5495   3.5562
     3.5843   3.5887   3.6152   3.6160   3.6200   3.6487   3.6780   3.6854
     3.6859   3.7021   3.7082   3.7497   3.7650   3.7670   3.7708   3.7864
     3.7916   3.8465   3.8507   3.8648   3.8923   3.9038   3.9097   3.9113
     3.9127   3.9280   3.9387   3.9444   3.9451   3.9481   3.9655   3.9764
     3.9777   3.9821   4.0007   4.0220   4.0220   4.0253   4.0562   4.0631
     4.0671   4.0737   4.0746   4.0850   4.1084   4.1158   4.1223   4.1397
     4.1464   4.1479   4.1739   4.1779   4.1813   4.1874   4.1915   4.1946
     4.1974   4.2188   4.2220   4.2238   4.2262   4.2319   4.2688   4.2717
     4.2828   4.3035   4.3080   4.3230   4.3272   4.3446   4.3492   4.3508
     4.3606   4.3784   4.3988   4.4045   4.4191   4.4234   4.4240   4.4322
     4.4577   4.4611   4.4625   4.4933   4.4935   4.5053   4.5336   4.5396
     4.5489   4.5570   4.5779   4.5803   4.5839   4.5906   4.5987   4.6127
     4.6310   4.6647   4.6707   4.6894   4.7064   4.7171   4.7479   4.7952
     4.8047   4.8210   4.8265   4.8333   4.8599   4.8665   4.8961   4.9186
     4.9267   4.9465   4.9470   4.9665   4.9753   4.9820   4.9851   4.9995
     5.0122   5.0274   5.0481   5.0522   5.0841   5.0937   5.0985   5.1168
     5.1297   5.1357   5.1720   5.1828   5.2019   5.2201   5.2386   5.2518
     5.2546   5.2574   5.2797   5.3215   5.3461   5.3470   5.3470   5.3597
     5.3711   5.3784   5.3931   5.3970   5.4101   5.4289   5.4373   5.4492
     5.4543   5.4708   5.4807   5.4943   5.4979   5.5081   5.5095   5.5269
     5.5381   5.5503   5.5536   5.5748   5.5795   5.5815   5.5888   5.6046
     5.6072   5.6131   5.6435   5.6512   5.6679   5.6713   5.7144   5.7285
     5.7295   5.7677   5.7741   5.7901   5.7916   5.7998   5.8347   5.8590
     5.8642   5.8781   5.8977   5.9036   5.9072   5.9141   5.9434   5.9483
     5.9723   5.9826   5.9844   6.0200   6.0237   6.0299   6.0379   6.0597
     6.1095   6.1184   6.1242   6.1255   6.1273   6.1468   6.1506   6.1565
     6.1595   6.1743   6.1938   6.2114   6.2147   6.2240   6.2278   6.2346
     6.2363   6.2504   6.2540   6.2716   6.2757   6.2758   6.2938   6.3006
     6.3011   6.3144   6.3145   6.3212   6.3224   6.3273   6.3343   6.3572
     6.3622   6.3664   6.3762   6.3840   6.3896   6.3908   6.3931   6.4004
     6.4266   6.4356   6.4494   6.4541   6.4584   6.4643   6.4655   6.4811
     6.4875   6.5051   6.5419   6.5433   6.5495   6.5643   6.5648   6.5679
     6.5874   6.5890   6.5977   6.5996   6.6026   6.6028   6.6269   6.6274
     6.7178   6.7189   6.7258   6.7450   6.7966   6.8303   6.8750   6.8778
     6.9111   6.9112   6.9662   7.1490   7.4630   7.4848   7.5677   7.6163
     7.6595   7.7839   7.7876   7.7931   7.9867   8.0370   8.0832   8.2066
     8.2358   8.2942   8.2999   8.4395   8.4792   8.5084   8.6562   8.6806
     8.7584   8.7941   8.9604   9.0340   9.0370   9.1525   9.1738   9.2184
     9.2662   9.4277   9.4831   9.7076   9.7082   9.7107   9.7680   9.7775
     9.9050   9.9558  10.0863  10.2304  10.3586  10.5420  10.6336  10.6517
    10.6523  10.6637  10.9777  11.0145  11.0276  11.1343  11.2093  11.2607
    11.3007  11.3342  11.3798  11.4417  11.5260  11.6092  11.6931  11.7724
    11.8431  11.8435  12.0153  12.0884  12.0924  12.0993  12.2304  12.2956
    12.4259  12.4477  12.5344  12.5530  12.5789  12.6670  12.7282  12.8279
    12.9230  12.9507  13.0060  13.1170  13.2778  13.3256  13.4004  13.4308
    13.4393  13.5545  13.6184  13.6330  13.6481  13.7158  13.7996  13.8987
    14.0118  14.0502  14.1010

          k = 0.0417 0.2406 0.0000 ( 55030 PWs)   bands (ev):

    -0.5139  -0.2262  -0.1777   0.1021   0.3118   0.5803   0.8822   1.1389
     1.4020   1.5058   1.5835   1.6433   1.7091   1.7517   1.7548   1.8041
     1.8169   1.8301   1.8557   1.9103   1.9393   1.9476   1.9731   1.9999
     2.0095   2.0105   2.0134   2.0285   2.0428   2.0659   2.0743   2.0845
     2.1273   2.1442   2.1467   2.1617   2.1689   2.1963   2.2341   2.2418
     2.2478   2.2734   2.2887   2.3028   2.3081   2.3383   2.3439   2.3702
     2.3808   2.3834   2.4081   2.4365   2.4397   2.4495   2.4516   2.4563
     2.4744   2.4767   2.5359   2.5380   2.5535   2.5682   2.5906   2.5946
     2.5987   2.6142   2.6170   2.6592   2.6638   2.6732   2.6934   2.7014
     2.7719   2.7726   2.7856   2.8062   2.8069   2.8491   2.8755   2.8759
     2.9230   2.9566   3.1223   3.1333   3.1402   3.1632   3.1812   3.1994
     3.2746   3.2796   3.3130   3.3280   3.3541   3.3780   3.3793   3.4050
     3.4215   3.5152   3.5321   3.5438   3.5539   3.5764   3.5857   3.5909
     3.5936   3.6247   3.6264   3.6298   3.6448   3.6924   3.6979   3.7045
     3.7202   3.7350   3.7438   3.7593   3.7595   3.7715   3.7854   3.7878
     3.8267   3.8468   3.8557   3.8573   3.8679   3.8683   3.9198   3.9235
     3.9410   3.9489   3.9531   3.9711   3.9759   3.9800   4.0155   4.0164
     4.0194   4.0419   4.0535   4.0580   4.0698   4.0710   4.0765   4.0790
     4.1022   4.1098   4.1199   4.1319   4.1395   4.1412   4.1500   4.1548
     4.1626   4.1696   4.1833   4.1871   4.1936   4.2004   4.2022   4.2052
     4.2184   4.2369   4.2544   4.2560   4.2740   4.2746   4.2887   4.2969
     4.3006   4.3062   4.3149   4.3225   4.3395   4.3506   4.3538   4.3689
     4.3692   4.3710   4.3817   4.3939   4.3997   4.4256   4.4668   4.4714
     4.4782   4.4856   4.4908   4.4956   4.4993   4.5051   4.5344   4.5357
     4.5362   4.5561   4.5745   4.5789   4.5866   4.6622   4.6805   4.6920
     4.7146   4.7190   4.7257   4.7308   4.7854   4.8015   4.8104   4.8152
     4.8178   4.8243   4.8262   4.8498   4.8597   4.8719   4.9012   4.9068
     4.9253   4.9587   4.9713   4.9820   5.0023   5.0067   5.0168   5.0249
     5.0343   5.0375   5.0847   5.0950   5.1096   5.1226   5.1294   5.1734
     5.1804   5.2000   5.2251   5.2312   5.2392   5.2411   5.2505   5.2593
     5.2742   5.2770   5.2860   5.2973   5.3267   5.3373   5.3446   5.3644
     5.3673   5.3732   5.3763   5.3769   5.3879   5.4030   5.4036   5.4094
     5.4730   5.4870   5.5335   5.5373   5.5427   5.5471   5.5779   5.5823
     5.5992   5.6077   5.6204   5.6322   5.6408   5.6681   5.6748   5.6968
     5.7080   5.7309   5.7313   5.7336   5.7485   5.7669   5.7699   5.7780
     5.8003   5.8290   5.8342   5.8375   5.8440   5.8539   5.8543   5.8571
     5.8575   5.9006   5.9036   5.9109   5.9491   5.9495   5.9589   5.9689
     5.9910   6.0096   6.0132   6.0142   6.0279   6.0362   6.0442   6.0479
     6.0539   6.0574   6.0720   6.0737   6.0767   6.0774   6.0909   6.0912
     6.1010   6.1246   6.1303   6.1452   6.1531   6.1686   6.1764   6.1843
     6.1929   6.1999   6.2058   6.2095   6.2261   6.2262   6.2357   6.2487
     6.2580   6.2637   6.2649   6.2658   6.2674   6.2731   6.2791   6.2827
     6.2915   6.2933   6.3073   6.3174   6.3340   6.3364   6.3499   6.3590
     6.3649   6.3702   6.3775   6.3779   6.4188   6.4245   6.4253   6.4426
     6.4455   6.4498   6.4744   6.5163   6.5468   6.5474   6.5485   6.5509
     6.5854   6.5861   6.5902   6.5927   6.5993   6.5998   6.6022   6.6044
     6.6628   6.7174   6.7253   6.7288   6.7401   6.8160   6.8260   6.8956
     6.8967   6.8975   6.9059   6.9067   6.9118   7.0668   7.4072   7.4969
     7.6143   7.6393   7.7174   7.8003   7.8510   7.8663   8.0290   8.0664
     8.1974   8.2649   8.3294   8.3615   8.4201   8.4216   8.5164   8.5961
     8.6837   8.8062   8.8540   9.0093   9.0221   9.1287   9.2264   9.2506
     9.3121   9.3898   9.7013   9.7305   9.7559   9.7806   9.7879   9.8689
    10.0745  10.2501  10.2530  10.4663  10.5448  10.5921  10.6437  10.7565
    10.7872  11.0498  11.1351  11.1946  11.2183  11.2269  11.2742  11.3421
    11.3899  11.4439  11.4826  11.6598  11.6622  11.7793  11.8063  11.8566
    11.9859  12.0117  12.1032  12.1129  12.1264  12.2554  12.3037  12.3201
    12.3472  12.4090  12.5248  12.5925  12.6222  12.6535  12.7049  12.7652
    12.8191  12.8499  12.9357  13.0694  13.0963  13.1682  13.2007  13.2841
    13.4465  13.4610  13.4634  13.5268  13.6556  13.6624  13.6885  13.8266
    13.8963  13.9579  14.0995

          k = 0.1250 0.0481 0.0000 ( 55079 PWs)   bands (ev):

    -0.7371  -0.3966   0.0989   0.6179   0.6744   0.9017   1.0349   1.1980
     1.2810   1.3082   1.5129   1.6012   1.6172   1.6297   1.6348   1.6504
     1.6768   1.7829   1.8490   1.8750   1.8936   1.8997   1.9018   1.9259
     1.9818   2.0480   2.0793   2.0925   2.1251   2.1391   2.1539   2.1633
     2.1652   2.2024   2.2212   2.2302   2.2416   2.2445   2.2811   2.2836
     2.2968   2.3111   2.3426   2.3517   2.3563   2.4044   2.4142   2.4363
     2.4404   2.4701   2.4725   2.4803   2.5227   2.5390   2.5419   2.5509
     2.5817   2.5908   2.6333   2.6410   2.6632   2.6765   2.6787   2.6938
     2.7240   2.7517   2.7860   2.7897   2.8261   2.8324   2.8638   2.9155
     2.9237   2.9483   2.9914   3.0344   3.0607   3.0733   3.0747   3.1142
     3.1540   3.1628   3.1773   3.1787   3.1960   3.2221   3.2578   3.2962
     3.2992   3.2995   3.3292   3.3325   3.3384   3.3598   3.3722   3.3887
     3.3902   3.4134   3.4377   3.4378   3.4695   3.4704   3.4856   3.5314
     3.5527   3.5593   3.5649   3.5680   3.6024   3.6091   3.6245   3.6292
     3.6443   3.6739   3.6971   3.7177   3.7215   3.7229   3.7297   3.7351
     3.7745   3.7778   3.8087   3.8157   3.8179   3.8415   3.8589   3.8600
     3.8755   3.8802   3.8837   3.8955   3.8984   3.9144   3.9334   3.9351
     3.9545   3.9558   3.9576   3.9662   3.9724   3.9766   3.9819   3.9839
     3.9897   4.0188   4.0326   4.0583   4.0635   4.0730   4.0748   4.0828
     4.0922   4.0991   4.1018   4.1098   4.1140   4.1380   4.1647   4.1685
     4.1782   4.1815   4.1846   4.1891   4.1916   4.1937   4.2005   4.2079
     4.2223   4.2289   4.2368   4.2463   4.2520   4.2928   4.3042   4.3124
     4.3213   4.3306   4.3597   4.3653   4.3675   4.3688   4.3839   4.3942
     4.4064   4.4136   4.4267   4.4378   4.4440   4.4620   4.4827   4.4981
     4.5012   4.5180   4.5232   4.5428   4.5431   4.5525   4.5697   4.6479
     4.6509   4.6741   4.6756   4.7125   4.7465   4.7709   4.7719   4.8046
     4.8270   4.8438   4.8546   4.8743   4.8809   4.8938   4.9181   4.9192
     4.9330   4.9344   4.9401   4.9461   4.9473   4.9517   4.9818   5.0069
     5.0115   5.0165   5.0434   5.0631   5.0670   5.0930   5.1002   5.1216
     5.1345   5.1393   5.1396   5.1516   5.1547   5.1930   5.2109   5.2260
     5.2273   5.2333   5.2500   5.2590   5.2603   5.2670   5.2865   5.3122
     5.3124   5.3247   5.3274   5.3358   5.3415   5.3538   5.3621   5.3643
     5.3693   5.4012   5.4064   5.4323   5.4528   5.4708   5.4781   5.5010
     5.5063   5.5087   5.5256   5.5510   5.5693   5.5727   5.5736   5.5812
     5.5985   5.5988   5.6384   5.6419   5.6505   5.6610   5.6853   5.6917
     5.7037   5.7298   5.7567   5.7599   5.7781   5.7907   5.7992   5.8009
     5.8398   5.8473   5.8646   5.8697   5.8739   5.8805   5.9238   5.9372
     5.9533   5.9701   6.0304   6.0323   6.0451   6.0554   6.0762   6.0793
     6.0892   6.0965   6.0987   6.1215   6.1316   6.1339   6.1567   6.1654
     6.1834   6.1834   6.2069   6.2209   6.2230   6.2246   6.2349   6.2379
     6.2488   6.2582   6.2691   6.2776   6.2826   6.2868   6.2921   6.2956
     6.3088   6.3122   6.3149   6.3270   6.3367   6.3453   6.3466   6.3502
     6.3562   6.3642   6.3677   6.3734   6.3755   6.3820   6.3938   6.3952
     6.4013   6.4102   6.4199   6.4473   6.4473   6.4798   6.4813   6.4824
     6.4836   6.5085   6.5086   6.5288   6.5353   6.5380   6.5398   6.5454
     6.5465   6.5512   6.5770   6.5945   6.6055   6.6251   6.6540   6.6563
     6.6615   6.6689   6.6794   6.7017   6.7487   6.7860   6.7885   6.8425
     6.8443   6.9539   7.0462   7.1245   7.1994   7.2039   7.3954   7.3984
     7.5528   7.6293   7.7221   7.7927   7.8827   7.9083   8.1022   8.1390
     8.1864   8.1910   8.2659   8.4426   8.5428   8.5575   8.7582   8.8449
     8.8612   8.9424   8.9858   9.0163   9.0977   9.1031   9.1663   9.1958
     9.3706   9.4416   9.4739   9.5983   9.7592   9.8115   9.8568   9.9075
    10.0292  10.0778  10.1011  10.1407  10.1419  10.3275  10.5031  10.5047
    10.7769  10.7971  10.9419  11.0388  11.0896  11.1636  11.2338  11.2417
    11.3479  11.3508  11.3928  11.4103  11.4694  11.5352  11.5751  11.7032
    11.9240  11.9537  11.9609  12.0719  12.0839  12.1053  12.1415  12.1803
    12.4425  12.4883  12.5528  12.6184  12.7000  12.7426  12.8209  12.8402
    12.9776  13.0320  13.2618  13.3350  13.4287  13.5814  13.5986  13.6312
    13.7211  13.7978  13.8117  13.9579  14.0039  14.0468  14.0556  14.0630
    14.1657  14.2980  14.4202

          k = 0.1250 0.1443 0.0000 ( 55061 PWs)   bands (ev):

    -0.6371  -0.2983   0.1949   0.2063   0.5171   0.7687   0.9684   1.2913
     1.3787   1.4917   1.6014   1.6107   1.6117   1.6684   1.7140   1.7258
     1.7567   1.8528   1.8594   1.9156   1.9239   1.9385   1.9572   1.9644
     1.9897   2.0035   2.0802   2.0954   2.1162   2.1473   2.1647   2.1686
     2.1981   2.2065   2.2215   2.2217   2.2394   2.2608   2.2717   2.2762
     2.3136   2.3212   2.3218   2.3235   2.3505   2.3771   2.3859   2.3883
     2.3930   2.3946   2.3984   2.4787   2.4794   2.4844   2.5097   2.5329
     2.5415   2.5527   2.5646   2.5867   2.6067   2.6156   2.6239   2.6829
     2.7091   2.7140   2.7270   2.7374   2.7618   2.7672   2.7713   2.7845
     2.8147   2.8644   2.8740   2.9333   2.9686   3.0244   3.0290   3.0910
     3.0986   3.1024   3.1243   3.1367   3.1503   3.1933   3.2461   3.2609
     3.2700   3.2988   3.2997   3.3421   3.3490   3.3817   3.4095   3.4149
     3.4222   3.4550   3.4608   3.4689   3.4799   3.4953   3.5255   3.5369
     3.5493   3.5528   3.5877   3.5906   3.6268   3.6390   3.6479   3.6633
     3.6772   3.6911   3.7236   3.7346   3.7374   3.7509   3.7994   3.8052
     3.8126   3.8246   3.8343   3.8368   3.8487   3.8728   3.8777   3.8916
     3.8967   3.9145   3.9165   3.9180   3.9224   3.9323   3.9486   3.9663
     3.9813   3.9920   3.9947   4.0119   4.0284   4.0293   4.0408   4.0427
     4.0447   4.0458   4.0593   4.0715   4.0817   4.1074   4.1099   4.1216
     4.1223   4.1504   4.1512   4.1612   4.1661   4.1692   4.1913   4.1935
     4.2029   4.2084   4.2120   4.2131   4.2285   4.2432   4.2486   4.2542
     4.2785   4.2839   4.2913   4.2996   4.3005   4.3219   4.3359   4.3457
     4.3469   4.3764   4.3769   4.3831   4.3854   4.4078   4.4102   4.4248
     4.4417   4.4467   4.4614   4.4697   4.5057   4.5161   4.5327   4.5454
     4.5525   4.5550   4.5567   4.5662   4.5810   4.5836   4.5968   4.6098
     4.6253   4.6419   4.6448   4.6708   4.6965   4.7052   4.7699   4.7799
     4.7991   4.8032   4.8193   4.8443   4.8509   4.8765   4.8798   4.8862
     4.9075   4.9077   4.9120   4.9257   4.9484   4.9552   4.9715   4.9716
     4.9755   4.9785   5.0304   5.0441   5.0700   5.0734   5.0772   5.0934
     5.1010   5.1181   5.1605   5.1612   5.1932   5.2104   5.2151   5.2369
     5.2451   5.2519   5.2814   5.2905   5.2970   5.3095   5.3287   5.3344
     5.3457   5.3615   5.3645   5.3701   5.3756   5.3880   5.3882   5.4066
     5.4298   5.4448   5.4533   5.4629   5.4638   5.4856   5.4916   5.4947
     5.4975   5.5318   5.5373   5.5375   5.5493   5.5741   5.5756   5.5952
     5.6161   5.6421   5.6435   5.6441   5.6788   5.6864   5.7088   5.7092
     5.7305   5.7421   5.7494   5.7690   5.7919   5.8195   5.8264   5.8407
     5.8547   5.8627   5.8960   5.9024   5.9139   5.9148   5.9402   5.9581
     5.9706   5.9797   6.0111   6.0273   6.0297   6.0560   6.0637   6.0663
     6.0722   6.0872   6.0909   6.1053   6.1144   6.1198   6.1341   6.1522
     6.1551   6.1611   6.1741   6.1894   6.1951   6.1993   6.2017   6.2026
     6.2083   6.2181   6.2201   6.2289   6.2427   6.2476   6.2499   6.2577
     6.2587   6.2649   6.2686   6.2733   6.2880   6.2886   6.2960   6.3146
     6.3295   6.3392   6.3473   6.3475   6.3550   6.3590   6.3711   6.3755
     6.3804   6.3882   6.3901   6.3969   6.4013   6.4318   6.4549   6.4669
     6.4736   6.4740   6.4740   6.4822   6.5070   6.5317   6.5374   6.5386
     6.5409   6.5451   6.5465   6.5514   6.5598   6.5802   6.5879   6.6146
     6.6575   6.6680   6.6839   6.7151   6.7914   6.7988   6.8406   6.8413
     6.9106   6.9560   6.9642   7.0725   7.0948   7.1915   7.2983   7.3760
     7.4282   7.4844   7.5300   7.6600   7.7036   7.7552   7.7591   7.8873
     7.9649   8.2566   8.2719   8.3177   8.3492   8.5147   8.7453   8.8107
     8.9664   8.9805   9.0037   9.0601   9.1495   9.2329   9.2553   9.2603
     9.3438   9.5722   9.6173   9.6503   9.7780   9.7895   9.8021   9.8868
     9.9664  10.1477  10.2437  10.3087  10.3248  10.5118  10.7340  10.7665
    10.7995  10.8092  11.0015  11.0535  11.1196  11.2011  11.2894  11.3368
    11.3813  11.4399  11.5398  11.5535  11.6098  11.6597  11.6728  11.7686
    11.8384  11.8472  11.9863  12.0660  12.1285  12.1627  12.2722  12.2967
    12.3100  12.4715  12.4878  12.5140  12.7130  12.8818  12.8856  12.9858
    13.0007  13.0881  13.2909  13.4121  13.4960  13.5279  13.5799  13.6110
    13.6139  13.6345  13.6810  13.8497  13.9061  14.0029  14.0576  14.1031
    14.1621  14.2008  14.2313

          k = 0.1250 0.2406 0.0000 ( 55022 PWs)   bands (ev):

    -0.4405  -0.1548  -0.1059   0.1715   0.3816   0.6470   0.9507   1.2039
     1.4701   1.5750   1.6491   1.6800   1.7088   1.7733   1.7998   1.8192
     1.8670   1.8783   1.9139   1.9189   1.9255   2.0014   2.0015   2.0129
     2.0351   2.0358   2.0689   2.0732   2.1041   2.1110   2.1239   2.1459
     2.1482   2.1539   2.1708   2.1913   2.1931   2.2157   2.2289   2.2861
     2.2884   2.2891   2.2921   2.3279   2.3414   2.3457   2.3625   2.3731
     2.3889   2.4179   2.4279   2.4339   2.4592   2.4735   2.4816   2.5062
     2.5110   2.5377   2.5473   2.5897   2.5898   2.5974   2.6016   2.6480
     2.6486   2.6628   2.6634   2.6757   2.7099   2.7334   2.7508   2.7533
     2.7625   2.7936   2.8119   2.8314   2.8661   2.8788   2.8938   2.9007
     2.9846   3.0232   3.1232   3.1448   3.1695   3.1762   3.2074   3.2240
     3.2936   3.3063   3.3246   3.3296   3.3600   3.3860   3.3860   3.4117
     3.4473   3.4624   3.4784   3.5043   3.5242   3.5342   3.5615   3.5626
     3.5891   3.5925   3.5984   3.6086   3.6498   3.6546   3.6589   3.7060
     3.7155   3.7247   3.7371   3.7469   3.7594   3.7663   3.7957   3.8031
     3.8273   3.8288   3.8382   3.8391   3.8570   3.8703   3.8923   3.9001
     3.9186   3.9344   3.9450   3.9629   3.9808   3.9833   3.9979   4.0100
     4.0104   4.0303   4.0307   4.0359   4.0642   4.0665   4.0781   4.0812
     4.0964   4.1010   4.1054   4.1110   4.1301   4.1322   4.1377   4.1502
     4.1530   4.1693   4.1826   4.1987   4.2055   4.2086   4.2087   4.2287
     4.2300   4.2347   4.2506   4.2669   4.2698   4.2919   4.2935   4.2940
     4.2995   4.3027   4.3218   4.3229   4.3298   4.3332   4.3543   4.3573
     4.3624   4.3765   4.3880   4.3936   4.3966   4.4040   4.4321   4.4341
     4.4596   4.4650   4.4954   4.5040   4.5243   4.5338   4.5410   4.5425
     4.5557   4.5561   4.5831   4.6099   4.6192   4.6274   4.6623   4.6657
     4.6927   4.7015   4.7085   4.7146   4.7245   4.7277   4.7485   4.7640
     4.7677   4.7865   4.7895   4.7962   4.8186   4.8405   4.8489   4.9107
     4.9332   4.9426   4.9571   4.9629   4.9679   4.9682   5.0072   5.0133
     5.0190   5.0348   5.0594   5.0702   5.0716   5.0774   5.0943   5.1001
     5.1255   5.1292   5.1434   5.1486   5.1553   5.1833   5.1844   5.1947
     5.2266   5.2302   5.2610   5.2724   5.2809   5.2974   5.3217   5.3281
     5.3349   5.3481   5.3564   5.3611   5.3721   5.4003   5.4068   5.4194
     5.4378   5.4565   5.4639   5.4971   5.4988   5.5196   5.5269   5.5334
     5.5433   5.5436   5.5798   5.5872   5.5940   5.6079   5.6224   5.6304
     5.6357   5.6757   5.6795   5.6940   5.6976   5.7012   5.7259   5.7414
     5.7563   5.7630   5.7680   5.7927   5.7963   5.8069   5.8185   5.8263
     5.8729   5.8765   5.9011   5.9081   5.9082   5.9378   5.9525   5.9544
     5.9553   5.9588   5.9702   5.9806   5.9886   6.0004   6.0128   6.0187
     6.0290   6.0318   6.0323   6.0631   6.0726   6.0885   6.1032   6.1040
     6.1207   6.1215   6.1346   6.1473   6.1473   6.1480   6.1561   6.1644
     6.1675   6.1748   6.1801   6.1842   6.1870   6.2103   6.2191   6.2204
     6.2325   6.2328   6.2427   6.2482   6.2559   6.2599   6.2775   6.2812
     6.2889   6.2922   6.3210   6.3262   6.3380   6.3425   6.3578   6.3810
     6.3857   6.3879   6.3912   6.4200   6.4235   6.4347   6.4424   6.4531
     6.4813   6.4814   6.4922   6.5105   6.5117   6.5154   6.5190   6.5321
     6.5402   6.5407   6.5494   6.5499   6.5574   6.5641   6.5815   6.6152
     6.6650   6.6678   6.7077   6.7675   6.8186   6.8234   6.8333   6.8359
     6.8427   6.9229   6.9712   7.0301   7.0386   7.0595   7.1256   7.1763
     7.1871   7.2758   7.3458   7.3472   7.5601   7.5888   7.6642   7.6747
     7.8645   8.0190   8.2467   8.2607   8.3484   8.3647   8.8023   9.0044
     9.0303   9.0950   9.1235   9.2667   9.3014   9.3083   9.4093   9.4700
     9.4732   9.6381   9.6383   9.7736   9.7991   9.8461   9.8571   9.9281
    10.0798  10.1340  10.2084  10.3041  10.3670  10.3904  10.5124  10.5470
    10.5826  10.7553  10.8617  10.8783  11.0971  11.1788  11.2675  11.2954
    11.3708  11.5078  11.6903  11.7293  11.7683  11.9386  12.0034  12.0778
    12.1100  12.1582  12.2229  12.2484  12.2802  12.3199  12.3316  12.4726
    12.4821  12.5629  12.7157  12.7315  12.8588  12.8717  13.0059  13.0118
    13.0744  13.1318  13.2141  13.2580  13.2670  13.3372  13.3809  13.5353
    13.5408  13.5617  13.6858  13.7470  13.8521  13.8815  13.9069  14.0045
    14.1478  14.1993  14.2589

          k = 0.2083 0.0481 0.0000 ( 55067 PWs)   bands (ev):

    -0.5875  -0.2496   0.2428   0.7501   0.8164   1.0261   1.1688   1.3394
     1.4025   1.4233   1.6066   1.6471   1.6937   1.7255   1.7556   1.7633
     1.7976   1.8383   1.8537   1.8899   1.9311   1.9418   1.9646   1.9730
     1.9923   2.0436   2.0855   2.0887   2.1379   2.1387   2.1459   2.1986
     2.2167   2.2308   2.2416   2.2513   2.2893   2.3434   2.3438   2.3478
     2.3554   2.4010   2.4164   2.4224   2.4284   2.4307   2.4891   2.4986
     2.5324   2.5394   2.5683   2.5826   2.5925   2.6073   2.6193   2.6601
     2.6793   2.7041   2.7049   2.7087   2.7165   2.7552   2.7573   2.7677
     2.7829   2.7855   2.8081   2.8792   2.8834   2.9154   2.9314   2.9434
     2.9596   2.9870   3.0503   3.0698   3.0936   3.1030   3.1075   3.1522
     3.1565   3.1761   3.1813   3.1870   3.1942   3.2304   3.2477   3.2801
     3.2933   3.2948   3.3108   3.3116   3.3160   3.3307   3.3375   3.3518
     3.3738   3.4120   3.4163   3.4312   3.4491   3.4650   3.4696   3.4767
     3.4911   3.4921   3.5191   3.5398   3.5549   3.5578   3.5793   3.6008
     3.6149   3.6472   3.6489   3.6570   3.6665   3.6683   3.6802   3.6856
     3.7576   3.7583   3.7860   3.7886   3.7903   3.8184   3.8406   3.8487
     3.8518   3.8588   3.8605   3.8664   3.8919   3.8929   3.8982   3.9279
     3.9449   3.9540   3.9570   3.9643   3.9692   3.9693   3.9701   3.9964
     3.9986   4.0049   4.0122   4.0287   4.0299   4.0465   4.0477   4.0503
     4.0588   4.0634   4.0754   4.1147   4.1248   4.1370   4.1394   4.1421
     4.1498   4.1504   4.1616   4.1703   4.1724   4.1759   4.1832   4.1910
     4.2008   4.2147   4.2265   4.2488   4.2538   4.2596   4.2613   4.2635
     4.2694   4.2951   4.2951   4.3095   4.3243   4.3763   4.3855   4.3901
     4.4034   4.4082   4.4104   4.4217   4.4416   4.4617   4.4713   4.4817
     4.4942   4.5047   4.5299   4.5305   4.5501   4.5553   4.5664   4.5982
     4.6153   4.6167   4.6623   4.7196   4.7273   4.7582   4.7701   4.7723
     4.8220   4.8307   4.8356   4.8476   4.8533   4.8559   4.8769   4.8891
     4.9084   4.9105   4.9119   4.9238   4.9407   4.9468   4.9554   4.9776
     4.9900   5.0123   5.0317   5.0459   5.0544   5.0721   5.0845   5.0853
     5.0947   5.1316   5.1430   5.1879   5.1885   5.1886   5.1890   5.2129
     5.2191   5.2231   5.2297   5.2446   5.2594   5.2679   5.2690   5.2772
     5.2799   5.3156   5.3252   5.3353   5.3524   5.3591   5.3753   5.3823
     5.3885   5.3934   5.3939   5.4189   5.4296   5.4617   5.4626   5.4686
     5.4786   5.5077   5.5138   5.5268   5.5393   5.5473   5.5522   5.5566
     5.5631   5.5943   5.5966   5.6264   5.6289   5.6532   5.6634   5.6824
     5.6872   5.7291   5.7401   5.7506   5.7673   5.7945   5.7964   5.8126
     5.8128   5.8177   5.8330   5.8599   5.8616   5.8777   5.9061   5.9145
     5.9379   5.9455   5.9626   5.9747   5.9897   5.9985   6.0244   6.0405
     6.0563   6.0638   6.0646   6.0698   6.0911   6.0984   6.1081   6.1095
     6.1111   6.1272   6.1364   6.1463   6.1473   6.1586   6.1606   6.1640
     6.1644   6.1800   6.1802   6.1900   6.1922   6.2093   6.2252   6.2326
     6.2356   6.2357   6.2408   6.2420   6.2545   6.2638   6.2723   6.2765
     6.2772   6.2772   6.2857   6.2860   6.2898   6.2965   6.3094   6.3134
     6.3264   6.3475   6.3517   6.3630   6.3793   6.3854   6.3914   6.4208
     6.4228   6.4353   6.4383   6.4413   6.4453   6.4520   6.4547   6.4690
     6.4967   6.5034   6.5072   6.5575   6.5628   6.5722   6.5777   6.5938
     6.6189   6.6397   6.6577   6.6616   6.6682   6.6765   6.6854   6.6942
     6.7151   6.7165   6.7983   6.8761   6.9866   7.0635   7.0979   7.1045
     7.2570   7.2670   7.4134   7.5114   7.5951   7.6025   7.7093   7.7919
     7.9025   7.9884   8.0957   8.2154   8.2777   8.3053   8.5498   8.7360
     8.8266   8.9295   9.0117   9.0724   9.0888   9.1529   9.3480   9.4148
     9.6532   9.6603   9.7168   9.7776   9.8382   9.8855   9.9723  10.0377
    10.0483  10.2265  10.2622  10.4361  10.4455  10.5776  10.6217  10.9050
    11.0045  11.0661  11.1809  11.2102  11.2914  11.3186  11.3681  11.4650
    11.5090  11.5142  11.5188  11.5923  11.6762  11.7287  11.7802  11.8406
    11.9629  12.0044  12.0151  12.0998  12.1629  12.3032  12.3517  12.3763
    12.5156  12.5739  12.6340  12.7546  12.8497  12.9215  12.9614  13.0676
    13.2236  13.4247  13.4746  13.5125  13.5705  13.6159  13.7456  13.7556
    13.7673  13.8011  13.8408  14.0123  14.1020  14.1308  14.1509  14.1842
    14.2950  14.3918  14.5284

          k = 0.2083 0.1443 0.0000 ( 55049 PWs)   bands (ev):

    -0.4894  -0.1536   0.3359   0.3412   0.6460   0.9070   1.0890   1.4284
     1.5163   1.5723   1.6073   1.7306   1.7333   1.7477   1.7898   1.8180
     1.8302   1.8360   1.8509   1.9450   1.9504   1.9606   2.0294   2.0369
     2.0433   2.0716   2.0771   2.1041   2.1152   2.1317   2.1958   2.2215
     2.2403   2.2549   2.2722   2.2914   2.2934   2.3040   2.3509   2.3573
     2.3715   2.3869   2.3923   2.4375   2.4381   2.4433   2.4563   2.4620
     2.4653   2.4713   2.4842   2.4884   2.5107   2.5703   2.5777   2.5878
     2.5890   2.6117   2.6370   2.6882   2.6883   2.7008   2.7052   2.7076
     2.7508   2.7848   2.7884   2.7938   2.8161   2.8263   2.8356   2.8617
     2.8766   2.9015   2.9879   2.9983   3.0070   3.0535   3.0792   3.1069
     3.1084   3.1254   3.1701   3.1794   3.1814   3.1957   3.2441   3.2609
     3.2732   3.3155   3.3239   3.3393   3.3704   3.3872   3.3902   3.4221
     3.4277   3.4379   3.4387   3.4498   3.4611   3.4901   3.4902   3.4951
     3.5052   3.5388   3.5632   3.5669   3.5837   3.5912   3.6179   3.6260
     3.6492   3.6891   3.6931   3.7071   3.7239   3.7278   3.7314   3.7375
     3.7493   3.7597   3.8017   3.8058   3.8134   3.8391   3.8415   3.8597
     3.8768   3.8802   3.8833   3.8989   3.9151   3.9215   3.9235   3.9398
     3.9496   3.9562   3.9668   3.9786   3.9908   3.9986   4.0173   4.0244
     4.0264   4.0276   4.0384   4.0682   4.0735   4.0767   4.0782   4.1156
     4.1163   4.1335   4.1449   4.1598   4.1680   4.1795   4.1831   4.1892
     4.2001   4.2094   4.2100   4.2233   4.2267   4.2400   4.2413   4.2497
     4.2595   4.2871   4.2892   4.3071   4.3072   4.3127   4.3152   4.3251
     4.3394   4.3456   4.3483   4.3527   4.3604   4.3607   4.3723   4.3827
     4.4134   4.4164   4.4576   4.4812   4.4831   4.4869   4.4893   4.5159
     4.5210   4.5240   4.5399   4.5413   4.5444   4.5654   4.5827   4.5836
     4.5970   4.6385   4.6418   4.6596   4.6825   4.7016   4.7479   4.7535
     4.7588   4.7638   4.7904   4.8232   4.8292   4.8363   4.8427   4.8459
     4.8583   4.8768   4.9195   4.9280   4.9332   4.9426   4.9530   4.9566
     4.9755   4.9812   4.9947   5.0153   5.0262   5.0288   5.0595   5.0810
     5.1064   5.1091   5.1349   5.1544   5.1557   5.1654   5.1770   5.1771
     5.1928   5.1965   5.1966   5.2144   5.2199   5.2274   5.2400   5.2585
     5.2973   5.3038   5.3066   5.3092   5.3369   5.3417   5.3472   5.3537
     5.3612   5.3814   5.3903   5.3971   5.4366   5.4524   5.4541   5.4718
     5.4788   5.4923   5.4945   5.5234   5.5273   5.5345   5.5449   5.5529
     5.5725   5.5771   5.6119   5.6203   5.6212   5.6415   5.6436   5.6565
     5.6729   5.6829   5.7300   5.7536   5.7754   5.8016   5.8171   5.8222
     5.8481   5.8598   5.8671   5.8841   5.9186   5.9234   5.9376   5.9442
     5.9499   5.9627   5.9703   5.9863   5.9950   6.0087   6.0155   6.0167
     6.0296   6.0392   6.0422   6.0520   6.0611   6.0683   6.0730   6.0951
     6.0956   6.1004   6.1196   6.1254   6.1343   6.1424   6.1469   6.1599
     6.1624   6.1688   6.1722   6.1739   6.1869   6.1939   6.2008   6.2116
     6.2193   6.2242   6.2259   6.2362   6.2484   6.2594   6.2650   6.2708
     6.2717   6.2724   6.2784   6.3100   6.3126   6.3182   6.3223   6.3401
     6.3511   6.3515   6.3663   6.3730   6.3842   6.3871   6.3901   6.4029
     6.4142   6.4167   6.4316   6.4324   6.4410   6.4436   6.4469   6.4527
     6.4763   6.4833   6.4962   6.5012   6.5094   6.5483   6.5583   6.5943
     6.6020   6.6099   6.6150   6.6635   6.6743   6.6776   6.6834   6.7117
     6.7155   6.7189   6.7234   6.7553   6.8589   6.8596   6.9702   7.0819
     7.1304   7.2087   7.2892   7.5875   7.6104   7.7386   7.7916   7.9545
     8.0388   8.0674   8.1679   8.2636   8.3154   8.3636   8.3999   8.4579
     8.6852   8.7159   8.9063   8.9644   9.0908   9.2939   9.3243   9.4101
     9.4724   9.7442   9.7510   9.8463   9.8480   9.9373  10.0410  10.1396
    10.2086  10.3990  10.4853  10.4984  10.5359  10.5951  10.7894  10.7905
    10.9618  10.9865  11.0083  11.0412  11.0648  11.1419  11.2131  11.3909
    11.4139  11.4749  11.6673  11.6776  11.7687  11.7864  11.8456  11.8819
    11.9906  12.1726  12.2139  12.2573  12.3001  12.4106  12.4303  12.4400
    12.6153  12.6157  12.6412  12.9278  12.9932  13.0110  13.1155  13.1579
    13.1748  13.4026  13.5267  13.5747  13.5949  13.6176  13.6318  13.7301
    13.7707  13.9139  13.9243  14.1860  14.2061  14.2828  14.2858  14.2921
    14.2970  14.4470  14.4923

          k = 0.2083 0.2406 0.0000 ( 54996 PWs)   bands (ev):

    -0.2963  -0.0152   0.0346   0.3064   0.5171   0.7753   1.0821   1.3265
     1.5899   1.5993   1.6533   1.7081   1.7753   1.8302   1.8310   1.8822
     1.8926   1.9456   1.9848   1.9973   2.0089   2.0218   2.0383   2.0863
     2.0946   2.0983   2.1130   2.1326   2.1388   2.1597   2.1783   2.1826
     2.2188   2.2190   2.2315   2.2430   2.2450   2.2592   2.3038   2.3195
     2.3319   2.3376   2.3560   2.3700   2.3710   2.4264   2.4394   2.4483
     2.4677   2.4701   2.4759   2.5039   2.5197   2.5292   2.5475   2.5603
     2.5779   2.5928   2.6339   2.6434   2.6454   2.6575   2.6896   2.7051
     2.7106   2.7329   2.7543   2.7749   2.7850   2.7929   2.8137   2.8175
     2.8493   2.8589   2.8853   2.8936   2.9120   2.9372   2.9593   2.9842
     3.0681   3.1050   3.1394   3.1621   3.1925   3.2154   3.2255   3.2886
     3.2908   3.3108   3.3118   3.3181   3.3499   3.3551   3.3842   3.4264
     3.4331   3.4413   3.4639   3.4827   3.5068   3.5072   3.5136   3.5366
     3.5513   3.5737   3.5749   3.5852   3.5923   3.6106   3.6519   3.6646
     3.6650   3.6707   3.6858   3.7032   3.7542   3.7574   3.7580   3.7728
     3.7961   3.8101   3.8141   3.8367   3.8530   3.8614   3.8869   3.9019
     3.9080   3.9103   3.9157   3.9262   3.9369   3.9377   3.9550   3.9724
     4.0157   4.0160   4.0236   4.0256   4.0271   4.0465   4.0553   4.0640
     4.0788   4.0830   4.0923   4.1074   4.1176   4.1387   4.1447   4.1557
     4.1596   4.1817   4.1875   4.2000   4.2015   4.2162   4.2209   4.2249
     4.2363   4.2406   4.2453   4.2577   4.2647   4.2648   4.2693   4.2795
     4.2897   4.2941   4.3102   4.3114   4.3177   4.3243   4.3353   4.3439
     4.3812   4.3902   4.3910   4.4117   4.4132   4.4230   4.4287   4.4388
     4.4443   4.4655   4.4753   4.4815   4.4816   4.5154   4.5484   4.5769
     4.5779   4.5790   4.5829   4.5904   4.5917   4.6015   4.6124   4.6310
     4.6543   4.6546   4.6568   4.6664   4.6746   4.6795   4.6992   4.7093
     4.7212   4.7321   4.7557   4.7614   4.8106   4.8107   4.8124   4.8240
     4.8573   4.8660   4.8814   4.9029   4.9058   4.9128   4.9426   4.9489
     4.9543   4.9779   4.9814   4.9958   5.0016   5.0042   5.0113   5.0271
     5.0297   5.0473   5.0559   5.0799   5.0994   5.1039   5.1110   5.1194
     5.1487   5.1788   5.1882   5.1902   5.1994   5.2405   5.2450   5.2507
     5.2747   5.2747   5.3007   5.3234   5.3609   5.3614   5.3797   5.3902
     5.4087   5.4136   5.4331   5.4398   5.4479   5.4521   5.4584   5.4671
     5.4761   5.4819   5.4930   5.5125   5.5327   5.5352   5.5463   5.5660
     5.5812   5.5895   5.6006   5.6087   5.6189   5.6463   5.6602   5.6703
     5.6705   5.6852   5.6973   5.7385   5.7525   5.7554   5.7628   5.7695
     5.7868   5.8026   5.8087   5.8309   5.8420   5.8443   5.8699   5.8961
     5.8990   5.9034   5.9064   5.9220   5.9414   5.9529   5.9699   5.9795
     5.9924   5.9940   6.0058   6.0071   6.0211   6.0248   6.0400   6.0467
     6.0630   6.0648   6.0756   6.0791   6.0816   6.1021   6.1391   6.1403
     6.1532   6.1709   6.1776   6.1783   6.1855   6.1950   6.1953   6.2034
     6.2042   6.2154   6.2206   6.2224   6.2302   6.2349   6.2440   6.2495
     6.2653   6.2654   6.2980   6.3063   6.3109   6.3311   6.3444   6.3647
     6.3739   6.3792   6.3870   6.3916   6.4054   6.4065   6.4106   6.4178
     6.4306   6.4361   6.4448   6.4548   6.4596   6.4616   6.4800   6.4932
     6.5129   6.5160   6.5168   6.5310   6.5593   6.5635   6.5649   6.5896
     6.6245   6.6392   6.6477   6.6613   6.6870   6.7006   6.7039   6.7105
     6.7130   6.7901   6.8086   6.8307   6.9010   6.9039   7.0370   7.0451
     7.0567   7.1588   7.3105   7.3473   7.3802   7.5688   7.5835   7.6137
     7.6837   7.8963   8.1151   8.2720   8.3437   8.4013   8.5025   8.6557
     8.9269   9.0184   9.0665   9.1226   9.2275   9.4170   9.5028   9.5994
     9.6258   9.6731   9.8457   9.8885   9.8994   9.9213   9.9252  10.0439
    10.1184  10.1418  10.2490  10.4140  10.4617  10.5332  10.5513  10.5842
    10.6279  10.7318  10.8578  11.0369  11.0519  11.0607  11.2437  11.3895
    11.4986  11.5492  11.5828  11.6986  11.8926  11.9461  12.0838  12.0927
    12.1922  12.2855  12.3447  12.3901  12.4529  12.5623  12.5976  12.6904
    12.8317  12.9807  13.0403  13.1130  13.1463  13.2452  13.2770  13.2780
    13.3703  13.3736  13.4834  13.5423  13.6264  13.6400  13.6612  13.7671
    13.8338  13.9448  14.0391  14.0747  14.0908  14.1923  14.2423  14.3199
    14.3727  14.3831  14.4068

          k = 0.2917 0.0481 0.0000 ( 55058 PWs)   bands (ev):

    -0.3680  -0.0349   0.4511   0.9341   1.0200   1.1954   1.3532   1.4556
     1.5409   1.5604   1.5753   1.6083   1.6541   1.7428   1.8361   1.8517
     1.8583   1.9269   1.9356   1.9443   1.9686   1.9865   2.0084   2.0151
     2.0593   2.1028   2.1098   2.1686   2.1985   2.2044   2.2247   2.2446
     2.2804   2.3081   2.3261   2.3319   2.3550   2.3930   2.4285   2.4666
     2.4879   2.5137   2.5203   2.5477   2.5523   2.5643   2.5682   2.5777
     2.5964   2.6212   2.6684   2.6825   2.6989   2.7236   2.7342   2.7667
     2.7748   2.7842   2.7884   2.7957   2.8148   2.8213   2.8468   2.8534
     2.8573   2.8983   2.9033   2.9216   2.9351   2.9424   2.9600   3.0441
     3.0564   3.0638   3.0663   3.0850   3.0968   3.1118   3.1120   3.1291
     3.1540   3.1656   3.1789   3.1882   3.2023   3.2065   3.2336   3.2419
     3.2560   3.2568   3.2802   3.3022   3.3073   3.3251   3.3273   3.3483
     3.3494   3.3798   3.3821   3.3985   3.4156   3.4273   3.4352   3.4415
     3.4532   3.4657   3.4693   3.4791   3.4859   3.5126   3.5137   3.5212
     3.5388   3.5940   3.6199   3.6447   3.6488   3.6674   3.6802   3.6888
     3.6942   3.6944   3.7213   3.7454   3.7658   3.7760   3.8069   3.8189
     3.8234   3.8334   3.8504   3.8527   3.8564   3.8647   3.8654   3.8942
     3.8954   3.8963   3.9092   3.9157   3.9292   3.9349   3.9771   3.9804
     3.9860   3.9985   4.0122   4.0211   4.0243   4.0330   4.0457   4.0516
     4.0603   4.0636   4.0673   4.0903   4.1009   4.1009   4.1095   4.1255
     4.1348   4.1568   4.1586   4.1651   4.1719   4.1819   4.1878   4.1922
     4.1936   4.1967   4.2040   4.2580   4.2606   4.2627   4.2646   4.2652
     4.2758   4.2824   4.3029   4.3266   4.3276   4.3628   4.3719   4.3825
     4.3901   4.4017   4.4111   4.4379   4.4436   4.4578   4.4626   4.4690
     4.4878   4.4958   4.5346   4.5440   4.5613   4.5685   4.5956   4.6097
     4.6160   4.6187   4.6228   4.6695   4.6721   4.6962   4.7176   4.7259
     4.7481   4.7574   4.7631   4.7730   4.7918   4.8212   4.8225   4.8454
     4.8498   4.9045   4.9077   4.9125   4.9280   4.9423   4.9477   4.9635
     4.9719   5.0019   5.0084   5.0091   5.0174   5.0352   5.0357   5.0540
     5.0756   5.0857   5.0936   5.1156   5.1190   5.1205   5.1406   5.1599
     5.1797   5.1815   5.1827   5.1836   5.2002   5.2019   5.2230   5.2243
     5.2264   5.2468   5.2860   5.2986   5.3054   5.3311   5.3323   5.3364
     5.3384   5.3494   5.3571   5.3582   5.3748   5.3917   5.4318   5.4380
     5.4455   5.4536   5.4952   5.5073   5.5217   5.5246   5.5277   5.5357
     5.5508   5.5522   5.5781   5.5816   5.6046   5.6307   5.6356   5.6493
     5.6828   5.6990   5.7128   5.7244   5.7261   5.7354   5.7372   5.7839
     5.7906   5.8210   5.8223   5.8334   5.8410   5.8498   5.8657   5.8766
     5.8926   5.8938   5.9151   5.9183   5.9196   5.9233   5.9367   5.9429
     5.9473   5.9647   5.9674   5.9800   5.9957   5.9962   6.0048   6.0223
     6.0350   6.0445   6.0472   6.0554   6.0594   6.0741   6.0750   6.0942
     6.1056   6.1070   6.1115   6.1120   6.1375   6.1513   6.1532   6.1580
     6.1662   6.1706   6.1783   6.1847   6.1870   6.1948   6.2048   6.2081
     6.2194   6.2254   6.2288   6.2332   6.2375   6.2453   6.2465   6.2554
     6.2557   6.2673   6.2718   6.2814   6.2856   6.2909   6.2973   6.3108
     6.3189   6.3240   6.3330   6.3400   6.3534   6.3598   6.3785   6.4024
     6.4114   6.4345   6.4555   6.4579   6.4642   6.4770   6.4870   6.5115
     6.5189   6.5384   6.5435   6.5515   6.5612   6.5735   6.6055   6.6081
     6.6172   6.6335   6.6521   6.7525   6.8339   6.8436   6.8499   7.0252
     7.0435   7.0696   7.1384   7.3219   7.3904   7.4504   7.5050   7.5594
     7.6753   7.7621   7.7771   8.1872   8.3178   8.3277   8.4071   8.5059
     8.5515   8.9505   9.1543   9.1959   9.2041   9.2747   9.3502   9.4317
     9.5610   9.5968   9.8073  10.0619  10.0888  10.1082  10.1145  10.2362
    10.3164  10.4055  10.4276  10.5700  10.6039  10.6504  10.7540  10.8440
    10.9612  10.9786  10.9990  11.2136  11.2963  11.3199  11.4309  11.5300
    11.5652  11.6563  11.7080  11.7445  11.8667  11.8933  12.1670  12.2111
    12.2806  12.3413  12.3797  12.5297  12.6838  12.6967  12.7821  12.7869
    12.7926  12.9220  12.9953  13.0182  13.0269  13.1708  13.1751  13.2656
    13.3818  13.5639  13.6175  13.6374  13.7552  13.7608  13.8097  13.8822
    13.9286  13.9921  14.0036  14.0992  14.1101  14.2518  14.3130  14.3713
    14.4926  14.6876  14.6915

          k = 0.2917 0.1443 0.0000 ( 55039 PWs)   bands (ev):

    -0.2732   0.0570   0.5326   0.5388   0.8262   1.1033   1.2519   1.4453
     1.5140   1.6203   1.6548   1.7084   1.7533   1.7534   1.8920   1.9078
     1.9131   1.9173   1.9602   1.9790   2.0072   2.0177   2.0274   2.0828
     2.1293   2.1382   2.1448   2.1528   2.1893   2.2043   2.2327   2.3010
     2.3165   2.3280   2.3475   2.3573   2.4181   2.4341   2.4353   2.4510
     2.4610   2.4811   2.5195   2.5225   2.5239   2.5382   2.5407   2.5661
     2.5686   2.5991   2.6023   2.6043   2.6064   2.6252   2.6464   2.6514
     2.6556   2.6854   2.7143   2.7794   2.7949   2.8137   2.8171   2.8213
     2.8253   2.8307   2.8466   2.8670   2.8946   2.9315   2.9348   2.9368
     2.9514   2.9852   3.0257   3.0586   3.0861   3.0897   3.1081   3.1119
     3.1389   3.1638   3.1649   3.2039   3.2289   3.2320   3.2649   3.2685
     3.2906   3.2936   3.3122   3.3384   3.3444   3.3451   3.3705   3.3712
     3.3850   3.4125   3.4267   3.4394   3.4529   3.4561   3.4618   3.4670
     3.5057   3.5107   3.5120   3.5393   3.5480   3.5591   3.5597   3.6049
     3.6277   3.6361   3.6485   3.6588   3.6623   3.6768   3.6833   3.6883
     3.6977   3.7306   3.7372   3.7387   3.7487   3.7527   3.7721   3.7995
     3.8002   3.8403   3.8452   3.8817   3.8834   3.8995   3.9065   3.9117
     3.9282   3.9425   3.9461   3.9834   3.9838   3.9841   3.9867   4.0156
     4.0210   4.0320   4.0505   4.0680   4.0773   4.0804   4.0855   4.1024
     4.1093   4.1228   4.1305   4.1405   4.1425   4.1571   4.1589   4.1627
     4.1959   4.1968   4.2084   4.2176   4.2241   4.2324   4.2449   4.2478
     4.2615   4.2739   4.2766   4.2785   4.2796   4.2985   4.2990   4.3070
     4.3114   4.3151   4.3203   4.3332   4.3445   4.3606   4.3655   4.3746
     4.3776   4.3886   4.3964   4.4475   4.4484   4.4569   4.4713   4.4714
     4.4754   4.5011   4.5327   4.5350   4.5451   4.5580   4.5776   4.5884
     4.6042   4.6111   4.6218   4.6456   4.6812   4.7055   4.7223   4.7248
     4.7458   4.7482   4.7706   4.7768   4.7791   4.7884   4.7893   4.8287
     4.8645   4.8660   4.8762   4.8847   4.8862   4.8901   4.9351   4.9387
     4.9500   4.9600   4.9611   4.9695   4.9781   4.9819   4.9934   5.0013
     5.0206   5.0228   5.0340   5.0606   5.0702   5.0778   5.1161   5.1209
     5.1382   5.1409   5.1418   5.1765   5.1803   5.1884   5.1923   5.2046
     5.2352   5.2366   5.2412   5.2656   5.2785   5.2810   5.2842   5.3083
     5.3148   5.3305   5.3408   5.3512   5.3680   5.3713   5.3908   5.4081
     5.4251   5.4411   5.4764   5.4766   5.4770   5.4835   5.5006   5.5014
     5.5017   5.5484   5.5625   5.5698   5.6043   5.6070   5.6089   5.6378
     5.6401   5.6446   5.6462   5.6787   5.7058   5.7068   5.7253   5.7644
     5.7706   5.7821   5.7932   5.8030   5.8061   5.8063   5.8253   5.8301
     5.8499   5.8640   5.8655   5.8680   5.8726   5.8743   5.8749   5.9028
     5.9345   5.9470   5.9604   5.9628   5.9908   6.0009   6.0152   6.0249
     6.0376   6.0389   6.0402   6.0553   6.0701   6.0712   6.0800   6.0847
     6.0976   6.0982   6.1142   6.1143   6.1177   6.1283   6.1391   6.1584
     6.1588   6.1676   6.1732   6.1745   6.1877   6.2031   6.2088   6.2201
     6.2307   6.2335   6.2470   6.2490   6.2508   6.2605   6.2661   6.2729
     6.2734   6.2772   6.2790   6.2855   6.2878   6.2935   6.3088   6.3218
     6.3271   6.3433   6.3597   6.3656   6.3891   6.3941   6.3987   6.4059
     6.4067   6.4323   6.4496   6.4513   6.4822   6.4917   6.5061   6.5132
     6.5226   6.5434   6.5535   6.5662   6.5664   6.5901   6.6064   6.6205
     6.6330   6.6384   6.6437   6.6862   6.6895   6.7302   6.9247   6.9250
     7.0481   7.0656   7.2743   7.4940   7.5485   7.7309   7.7766   7.8008
     7.9454   7.9759   8.1507   8.2576   8.2736   8.2897   8.3699   8.5302
     8.5465   8.5882   8.6314   8.8935   9.1129   9.1193   9.2912   9.3418
     9.6032   9.6248   9.7718   9.8274   9.8985  10.0793  10.1323  10.2288
    10.2450  10.2739  10.5216  10.6218  10.7043  10.7224  10.7305  10.8691
    11.0464  11.1560  11.2132  11.2898  11.2954  11.3937  11.4103  11.4934
    11.5980  11.6755  11.8270  11.8562  11.8663  11.9338  11.9902  12.2276
    12.2621  12.3668  12.3865  12.4262  12.4969  12.6326  12.8160  12.8852
    12.9060  12.9942  13.0534  13.0566  13.1390  13.3114  13.3798  13.4297
    13.4740  13.5618  13.6658  13.7755  13.7838  13.8455  13.9314  13.9660
    13.9694  14.0723  14.1195  14.2734  14.2920  14.3066  14.3923  14.4482
    14.4579  14.6404  14.6491

          k = 0.2917 0.2406 0.0000 ( 55053 PWs)   bands (ev):

    -0.0866   0.1858   0.2374   0.4985   0.7099   0.9540   1.2645   1.4409
     1.4599   1.4903   1.6634   1.6925   1.7737   1.8936   1.9118   1.9302
     1.9509   1.9845   2.0384   2.0467   2.1078   2.1107   2.1114   2.1415
     2.1658   2.1858   2.1977   2.2007   2.2151   2.2357   2.2486   2.2931
     2.3161   2.3181   2.3263   2.3328   2.3629   2.3655   2.3757   2.3856
     2.4307   2.4338   2.4620   2.4671   2.4852   2.5089   2.5097   2.5372
     2.5513   2.5628   2.5868   2.5916   2.5992   2.6208   2.6454   2.6637
     2.6784   2.6825   2.6917   2.7284   2.7309   2.7644   2.7658   2.7660
     2.7812   2.8203   2.8367   2.8680   2.8721   2.8939   2.8950   2.9182
     2.9233   2.9538   2.9795   2.9893   2.9985   3.0498   3.0779   3.0836
     3.1143   3.1696   3.1773   3.1930   3.1968   3.2462   3.2508   3.2640
     3.2821   3.2915   3.3063   3.3229   3.3322   3.3421   3.3687   3.4057
     3.4119   3.4542   3.4595   3.4751   3.4862   3.4863   3.4880   3.5107
     3.5186   3.5225   3.5508   3.5661   3.5823   3.5854   3.5860   3.5953
     3.6085   3.6240   3.6441   3.6613   3.6744   3.6952   3.6991   3.7273
     3.7445   3.7468   3.7602   3.8141   3.8196   3.8361   3.8494   3.8577
     3.8904   3.8916   3.8923   3.8976   3.9202   3.9216   3.9388   3.9649
     3.9711   3.9945   3.9945   4.0214   4.0352   4.0369   4.0445   4.0532
     4.0548   4.0664   4.0704   4.0854   4.0917   4.1067   4.1084   4.1253
     4.1355   4.1359   4.1386   4.1724   4.1753   4.1855   4.1952   4.2118
     4.2250   4.2320   4.2338   4.2467   4.2530   4.2621   4.2645   4.2796
     4.2897   4.2898   4.3137   4.3138   4.3322   4.3392   4.3409   4.3499
     4.3582   4.3693   4.3780   4.3813   4.3986   4.4065   4.4095   4.4364
     4.4401   4.4469   4.4493   4.4592   4.4717   4.5036   4.5198   4.5281
     4.5362   4.5543   4.5638   4.5806   4.5845   4.5869   4.5952   4.6079
     4.6096   4.6279   4.6328   4.6436   4.6458   4.6646   4.6741   4.6843
     4.6881   4.7020   4.7021   4.7122   4.7155   4.7320   4.7355   4.7529
     4.7759   4.7843   4.7951   4.8116   4.8159   4.8461   4.8616   4.8703
     4.8793   4.8836   4.8953   4.9265   4.9506   4.9570   4.9600   4.9690
     4.9825   5.0014   5.0079   5.0130   5.0315   5.0386   5.0691   5.0745
     5.0997   5.1177   5.1239   5.1380   5.1401   5.1424   5.1921   5.1937
     5.2007   5.2365   5.2513   5.2564   5.2676   5.2734   5.2742   5.3284
     5.3489   5.3518   5.3592   5.3632   5.3690   5.3696   5.3940   5.4213
     5.4301   5.4354   5.4445   5.4748   5.4758   5.4836   5.4864   5.4970
     5.5078   5.5277   5.5320   5.5354   5.5620   5.5667   5.5753   5.5825
     5.5883   5.6167   5.6237   5.6324   5.6589   5.6672   5.6731   5.6742
     5.6835   5.6847   5.7019   5.7040   5.7511   5.7619   5.7683   5.7793
     5.7851   5.7940   5.8159   5.8220   5.8263   5.8338   5.8400   5.8488
     5.8633   5.8635   5.8669   5.8958   5.9250   5.9262   5.9517   5.9726
     5.9811   5.9828   6.0352   6.0410   6.0445   6.0449   6.0597   6.0743
     6.0788   6.0989   6.1183   6.1250   6.1337   6.1463   6.1505   6.1536
     6.1665   6.1744   6.1852   6.1853   6.1856   6.2042   6.2165   6.2166
     6.2175   6.2225   6.2274   6.2346   6.2435   6.2505   6.2576   6.2662
     6.2752   6.2812   6.2945   6.2994   6.3222   6.3322   6.3324   6.3395
     6.3452   6.3683   6.3791   6.3868   6.4065   6.4066   6.4121   6.4450
     6.4488   6.4573   6.4772   6.4818   6.5004   6.5282   6.5283   6.5323
     6.5520   6.5564   6.5600   6.5714   6.5800   6.6254   6.6376   6.6466
     6.6615   6.6887   6.7075   6.7861   6.9632   7.0526   7.0721   7.0727
     7.1247   7.1978   7.2157   7.4952   7.6057   7.6511   7.6811   7.8156
     7.8626   7.8908   7.9146   8.2541   8.4282   8.4911   8.5655   8.5744
     8.5798   8.7094   8.7555   8.9833   9.0193   9.1775   9.3043   9.3186
     9.4022   9.4512   9.6121   9.7538   9.8263   9.9025   9.9147  10.1070
    10.2203  10.2962  10.4218  10.4933  10.5536  10.7647  10.8098  10.8740
    11.0010  11.0829  11.1013  11.1539  11.2809  11.2939  11.2966  11.4191
    11.5454  11.7827  11.8597  12.0281  12.1212  12.1904  12.3051  12.3496
    12.3905  12.4784  12.4983  12.6507  12.6590  12.7771  12.8748  12.9366
    12.9768  13.0763  13.1663  13.1675  13.2627  13.3193  13.4158  13.5245
    13.5365  13.7074  13.7486  13.7664  13.8268  13.9555  13.9637  14.0433
    14.1424  14.2053  14.2495  14.3747  14.3760  14.4869  14.5283  14.5519
    14.5903  14.6827  14.7055

          k = 0.3750 0.0481 0.0000 ( 55067 PWs)   bands (ev):

    -0.0846   0.2400   0.7140   1.0431   1.1486   1.2721   1.2944   1.3873
     1.5597   1.5861   1.6525   1.7201   1.7421   1.7842   1.7875   1.8189
     1.9844   2.0166   2.0456   2.0639   2.0745   2.1065   2.1176   2.1586
     2.1598   2.1606   2.1813   2.2209   2.2485   2.2685   2.2787   2.3424
     2.3865   2.4082   2.4493   2.4521   2.4581   2.4968   2.5078   2.5234
     2.5874   2.5948   2.5971   2.5988   2.6202   2.6394   2.6680   2.6956
     2.7210   2.7223   2.7239   2.7325   2.7396   2.7627   2.7890   2.7938
     2.8032   2.8652   2.8653   2.8674   2.8858   2.8998   2.9061   2.9230
     2.9331   2.9373   2.9516   2.9524   2.9917   2.9947   3.0087   3.0234
     3.0252   3.0442   3.0850   3.1099   3.1114   3.1270   3.1437   3.1681
     3.1692   3.1792   3.1888   3.1942   3.2296   3.2308   3.2328   3.2437
     3.2545   3.2595   3.2838   3.2874   3.2959   3.3046   3.3240   3.3245
     3.3289   3.3482   3.3630   3.3796   3.3834   3.3984   3.4114   3.4146
     3.4517   3.4520   3.4593   3.4712   3.4806   3.4893   3.5050   3.5225
     3.5335   3.5488   3.5777   3.5964   3.6000   3.6112   3.6514   3.6614
     3.6689   3.6840   3.6933   3.7052   3.7103   3.7162   3.7229   3.7752
     3.8100   3.8316   3.8377   3.8417   3.8471   3.8619   3.8622   3.8637
     3.8813   3.8855   3.9089   3.9341   3.9346   3.9348   3.9533   3.9582
     3.9743   3.9758   3.9931   4.0022   4.0117   4.0334   4.0340   4.0460
     4.0522   4.0545   4.0563   4.0808   4.0815   4.0962   4.0973   4.1064
     4.1106   4.1259   4.1323   4.1487   4.1558   4.1752   4.1861   4.1977
     4.2022   4.2040   4.2123   4.2204   4.2586   4.2722   4.2909   4.2965
     4.2967   4.2985   4.3330   4.3410   4.3423   4.3456   4.3579   4.3788
     4.3871   4.4072   4.4218   4.4276   4.4400   4.4499   4.4511   4.4530
     4.4902   4.4994   4.5132   4.5341   4.5555   4.5610   4.5977   4.6017
     4.6045   4.6209   4.6297   4.6364   4.6470   4.6525   4.6568   4.6796
     4.6797   4.6878   4.7162   4.7169   4.7306   4.7570   4.7614   4.7937
     4.7961   4.8003   4.8323   4.8685   4.9001   4.9238   4.9256   4.9366
     4.9395   4.9536   4.9558   4.9595   4.9632   4.9786   5.0021   5.0069
     5.0098   5.0270   5.0296   5.0610   5.0616   5.0625   5.0760   5.0781
     5.1055   5.1086   5.1363   5.1588   5.1610   5.1701   5.1786   5.1988
     5.2098   5.2169   5.2260   5.2320   5.2499   5.2581   5.2594   5.2647
     5.2734   5.2993   5.3294   5.3346   5.3387   5.3531   5.3735   5.3777
     5.3970   5.4213   5.4285   5.4286   5.4434   5.4742   5.5022   5.5064
     5.5149   5.5326   5.5439   5.5580   5.5667   5.5818   5.5878   5.5884
     5.5885   5.6050   5.6054   5.6466   5.6583   5.6596   5.6682   5.6834
     5.7010   5.7054   5.7093   5.7093   5.7301   5.7329   5.7335   5.7564
     5.7642   5.7914   5.8049   5.8069   5.8366   5.8487   5.8939   5.8947
     5.9058   5.9094   5.9236   5.9293   5.9373   5.9465   5.9535   5.9660
     5.9714   5.9813   5.9937   5.9956   5.9986   6.0278   6.0448   6.0456
     6.0557   6.0593   6.0653   6.0673   6.0855   6.0914   6.1020   6.1026
     6.1104   6.1134   6.1191   6.1406   6.1456   6.1470   6.1498   6.1588
     6.1738   6.1743   6.1878   6.1895   6.1931   6.1989   6.2011   6.2045
     6.2063   6.2159   6.2273   6.2302   6.2437   6.2473   6.2517   6.2743
     6.2820   6.2970   6.3021   6.3198   6.3201   6.3244   6.3370   6.3379
     6.3416   6.3526   6.3834   6.3985   6.4282   6.4375   6.4444   6.4447
     6.4677   6.4763   6.4815   6.4969   6.5003   6.5424   6.5521   6.5626
     6.5976   6.6065   6.6180   6.6199   6.6489   6.7404   6.7662   6.9106
     7.0283   7.0356   7.0981   7.1079   7.1111   7.2482   7.3599   7.4695
     7.7232   7.7556   7.7940   7.9449   8.0552   8.2671   8.5446   8.5655
     8.6217   8.7746   8.8098   9.2503   9.2767   9.4290   9.5098   9.5955
     9.6426   9.6725   9.8010   9.9118  10.1949  10.2084  10.3045  10.3818
    10.4574  10.5650  10.5683  10.5811  10.6073  10.6580  10.6673  10.9101
    10.9661  11.0597  11.1384  11.2197  11.2814  11.3056  11.4245  11.5624
    11.5725  11.5770  11.8828  12.0166  12.0318  12.1815  12.2922  12.3728
    12.4710  12.5365  12.6542  12.7614  12.7968  12.9505  13.0299  13.0914
    13.1359  13.1714  13.1744  13.2722  13.3990  13.4151  13.5095  13.5856
    13.5986  13.7311  13.8514  13.8723  13.8969  13.9947  14.0615  14.1345
    14.1416  14.1709  14.2964  14.3048  14.3860  14.4285  14.5277  14.5541
    14.5572  14.6043  14.8934

          k = 0.3750 0.1443 0.0000 ( 55097 PWs)   bands (ev):

     0.0044   0.3250   0.7649   0.7925   1.0402   1.0801   1.3257   1.3421
     1.4110   1.4343   1.6408   1.6658   1.8476   1.8861   1.8930   1.9331
     1.9967   2.0400   2.0445   2.0490   2.1097   2.1636   2.1800   2.1981
     2.2132   2.2222   2.2321   2.2388   2.2536   2.3216   2.3723   2.3757
     2.3834   2.3942   2.4171   2.4660   2.4677   2.4959   2.5112   2.5289
     2.5442   2.5600   2.5709   2.5932   2.6087   2.6277   2.6333   2.6571
     2.6865   2.6873   2.6938   2.6985   2.7138   2.7331   2.7414   2.7476
     2.7636   2.8054   2.8088   2.8104   2.8462   2.8546   2.8813   2.9026
     2.9241   2.9284   2.9395   2.9424   2.9486   2.9534   2.9571   2.9807
     3.0351   3.0614   3.0715   3.1121   3.1220   3.1266   3.1646   3.1754
     3.1935   3.2017   3.2081   3.2243   3.2349   3.2639   3.2743   3.2755
     3.2780   3.2909   3.2916   3.3121   3.3143   3.3201   3.3233   3.3269
     3.3510   3.3760   3.3939   3.3961   3.4242   3.4607   3.4610   3.4657
     3.4970   3.5010   3.5143   3.5233   3.5331   3.5377   3.5479   3.5582
     3.5746   3.5792   3.5925   3.5950   3.6157   3.6270   3.6323   3.6425
     3.6457   3.7012   3.7019   3.7046   3.7158   3.7411   3.7503   3.7746
     3.8006   3.8071   3.8460   3.8546   3.8782   3.8987   3.8989   3.9005
     3.9096   3.9143   3.9197   3.9455   3.9649   3.9697   3.9866   3.9930
     3.9932   4.0006   4.0213   4.0257   4.0472   4.0535   4.0612   4.0654
     4.0696   4.0748   4.1134   4.1229   4.1281   4.1353   4.1464   4.1534
[...]
     4.9108   4.9276   4.9355   4.9414   4.9565   4.9621   4.9724   4.9732
     4.9837   4.9990   5.0193   5.0301   5.0378   5.0466   5.0566   5.0633
     5.0698   5.0883   5.1354   5.1385   5.1420   5.1520   5.1605   5.1818
     5.1933   5.2014   5.2159   5.2246   5.2317   5.2384   5.2387   5.2497
     5.2623   5.2651   5.2690   5.2856   5.2874   5.2996   5.3200   5.3221
     5.3523   5.3539   5.3791   5.3899   5.4068   5.4142   5.4169   5.4194
     5.4242   5.4511   5.4529   5.4537   5.4787   5.4897   5.5110   5.5352
     5.5431   5.5474   5.5560   5.5769   5.5769   5.6006   5.6227   5.6278
     5.6574   5.6597   5.6608   5.6752   5.6766   5.6973   5.7000   5.7095
     5.7109   5.7251   5.7291   5.7477   5.7611   5.8053   5.8082   5.8216
     5.8245   5.8550   5.8654   5.8671   5.8826   5.8893   5.8966   5.9169
     5.9399   5.9409   5.9430   5.9577   5.9595   5.9809   5.9827   5.9958
     5.9992   6.0114   6.0284   6.0518   6.0532   6.0662   6.0671   6.0708
     6.0727   6.0861   6.0975   6.1011   6.1089   6.1224   6.1294   6.1428
     6.1521   6.1549   6.1625   6.1678   6.1700   6.1785   6.1962   6.2139
     6.2144   6.2210   6.2214   6.2351   6.2391   6.2598   6.2745   6.2768
     6.2830   6.2839   6.2946   6.3193   6.3230   6.3287   6.3461   6.3475
     6.3745   6.3753   6.3798   6.3881   6.3964   6.4046   6.4057   6.4094
     6.4348   6.4635   6.4702   6.4870   6.5196   6.5290   6.5611   6.5812
     6.5849   6.5921   6.5941   6.6050   6.6691   6.7171   6.7857   6.7994
     6.8277   6.8685   6.9981   7.0632   7.1347   7.2657   7.3382   7.3799
     7.6222   7.6913   7.8921   8.0546   8.0609   8.0796   8.4063   8.4154
     8.7456   8.9186   8.9282   8.9785   9.2565   9.2892   9.5702   9.6861
     9.8606   9.8718   9.8791   9.9777  10.0902  10.2001  10.2071  10.3144
    10.3643  10.4599  10.6743  10.7059  10.7284  10.7897  10.8918  10.9390
    10.9855  11.0333  11.1308  11.2360  11.2426  11.2824  11.5723  11.6064
    11.7217  11.7566  11.8986  11.9044  12.2163  12.2256  12.3722  12.4559
    12.5407  12.6017  12.7297  12.7436  12.8885  13.0228  13.0519  13.0808
    13.1578  13.2150  13.3232  13.3388  13.4644  13.4683  13.5777  13.8359
    13.8429  13.8814  13.8880  13.9141  14.1443  14.1704  14.2823  14.4030
    14.4102  14.5044  14.5544  14.6909  14.7346  14.8454  14.8645  14.9128
    14.9221  14.9376  15.0194

          k = 0.4583 0.1443 0.0000 ( 55107 PWs)   bands (ev):

     0.3333   0.6380   0.6988   0.9788   1.0132   1.0804   1.2411   1.2640
     1.3800   1.4720   1.6003   1.6100   1.7608   1.8466   1.9945   2.0412
     2.0651   2.0787   2.0842   2.1754   2.2537   2.2539   2.2716   2.2722
     2.2974   2.3061   2.3272   2.3591   2.3683   2.4028   2.4254   2.4336
     2.4504   2.4614   2.4714   2.4808   2.4997   2.5021   2.5440   2.5455
     2.5733   2.5949   2.5974   2.6220   2.6594   2.6747   2.6772   2.6811
     2.6945   2.7227   2.7599   2.7748   2.7762   2.7802   2.7973   2.8074
     2.8115   2.8326   2.8378   2.8538   2.8596   2.8697   2.8874   2.9300
     2.9323   2.9383   2.9463   2.9790   2.9962   3.0143   3.0357   3.0692
     3.0796   3.0823   3.0844   3.1258   3.1370   3.1604   3.1783   3.1825
     3.2007   3.2246   3.2394   3.2422   3.2676   3.2741   3.2742   3.2746
     3.3073   3.3117   3.3144   3.3282   3.3344   3.3392   3.3603   3.3674
     3.3840   3.3846   3.4120   3.4218   3.4238   3.4348   3.4608   3.4618
     3.4700   3.4765   3.4794   3.4960   3.5088   3.5316   3.5336   3.5474
     3.5512   3.5557   3.5685   3.5878   3.6222   3.6230   3.6274   3.6413
     3.6612   3.6751   3.6915   3.6999   3.7079   3.7386   3.7512   3.7627
     3.7708   3.7795   3.8158   3.8160   3.8363   3.8388   3.8537   3.8624
     3.8701   3.8764   3.8975   3.9150   3.9443   3.9453   3.9552   3.9591
     3.9939   3.9949   3.9988   4.0083   4.0249   4.0267   4.0549   4.0723
     4.0729   4.0820   4.1114   4.1159   4.1352   4.1401   4.1456   4.1464
     4.1518   4.1609   4.1689   4.1763   4.1854   4.1981   4.2032   4.2064
     4.2131   4.2166   4.2230   4.2263   4.2290   4.2328   4.2458   4.2464
     4.2670   4.2765   4.2777   4.2881   4.2986   4.2988   4.3107   4.3179
     4.3305   4.3690   4.3701   4.3806   4.3806   4.3888   4.4334   4.4539
     4.4643   4.4660   4.4720   4.4883   4.4947   4.5214   4.5235   4.5757
     4.5987   4.6015   4.6137   4.6409   4.6536   4.6546   4.6601   4.6771
     4.6841   4.6986   4.7064   4.7099   4.7196   4.7419   4.7591   4.7699
     4.7759   4.8298   4.8452   4.8509   4.8596   4.8665   4.8750   4.8758
     4.8995   4.9087   4.9258   4.9278   4.9487   4.9634   4.9657   4.9866
     4.9894   4.9926   5.0063   5.0081   5.0293   5.0356   5.0421   5.0660
     5.0721   5.0993   5.1152   5.1159   5.1304   5.1465   5.1483   5.1490
     5.1584   5.1945   5.1954   5.2026   5.2108   5.2238   5.2267   5.2341
     5.2419   5.2459   5.2525   5.2611   5.2836   5.2914   5.3126   5.3206
     5.3245   5.3285   5.3306   5.3403   5.3555   5.3616   5.3874   5.4087
     5.4126   5.4195   5.4260   5.4272   5.4292   5.4378   5.4494   5.4774
     5.4824   5.4960   5.5099   5.5212   5.5358   5.5461   5.5524   5.5848
     5.5932   5.5985   5.6084   5.6222   5.6323   5.6327   5.6372   5.6382
     5.6654   5.6746   5.6915   5.6941   5.6946   5.7057   5.7218   5.7359
     5.7454   5.7459   5.7686   5.7725   5.7740   5.7859   5.7972   5.8195
     5.8219   5.8361   5.8691   5.8720   5.9144   5.9258   5.9282   5.9440
     5.9468   5.9480   5.9560   5.9752   5.9825   5.9827   6.0107   6.0168
     6.0249   6.0280   6.0329   6.0717   6.0924   6.1044   6.1086   6.1135
     6.1350   6.1457   6.1603   6.1625   6.1769   6.1904   6.2052   6.2053
     6.2053   6.2083   6.2164   6.2565   6.2601   6.2751   6.2818   6.2832
     6.2866   6.2970   6.2973   6.3196   6.3427   6.3544   6.3649   6.3791
     6.3893   6.3948   6.4004   6.4472   6.4538   6.4602   6.4617   6.4894
     6.4934   6.4985   6.5170   6.5403   6.5435   6.5998   6.6072   6.6194
     6.6301   6.6428   6.7427   6.8482   6.8544   6.9992   7.0642   7.0848
     7.1196   7.2420   7.3241   7.3246   7.3416   7.4303   7.5136   7.5806
     7.7313   7.8222   8.0154   8.1142   8.2149   8.2563   8.4531   8.5501
     8.7954   8.8003   8.9362   9.0779   9.0923   9.1198   9.1201   9.2794
     9.4351   9.4446   9.4482   9.6590   9.8412   9.9827  10.0123  10.1379
    10.1755  10.4073  10.4495  10.4916  10.6181  10.7171  10.9128  11.1103
    11.2248  11.3090  11.3203  11.4991  11.5991  11.6360  11.7604  11.7672
    11.8741  12.0288  12.0818  12.1877  12.2590  12.3869  12.4924  12.5811
    12.6148  12.7647  12.7788  12.9114  12.9158  13.0216  13.1304  13.1927
    13.2289  13.2740  13.3034  13.4210  13.4525  13.6117  13.6770  13.7415
    13.7510  13.8642  14.0059  14.0382  14.1163  14.1446  14.1999  14.2521
    14.3429  14.4553  14.4662  14.6085  14.6247  14.6715  14.7223  14.7728
    14.8781  14.8908  15.0147

          k = 0.4583 0.2406 0.0000 ( 55107 PWs)   bands (ev):

     0.4901   0.7196   0.7834   0.8245   0.9952   1.0080   1.0910   1.2051
     1.2570   1.3854   1.4638   1.5912   1.6939   1.8292   1.8814   1.9456
     2.1292   2.2126   2.2303   2.2343   2.2907   2.3020   2.3254   2.3295
     2.3450   2.3581   2.3765   2.3992   2.4064   2.4123   2.4231   2.4263
     2.4283   2.4604   2.4839   2.4858   2.5136   2.5377   2.5648   2.5758
     2.5802   2.5881   2.5982   2.5987   2.6208   2.6352   2.6615   2.6943
     2.7150   2.7167   2.7268   2.7430   2.7452   2.7602   2.7758   2.7810
     2.8066   2.8148   2.8345   2.8372   2.8556   2.8596   2.8609   2.9118
     2.9197   2.9374   2.9568   3.0113   3.0220   3.0566   3.0677   3.0805
     3.0828   3.0852   3.1110   3.1308   3.1431   3.1803   3.1966   3.1989
     3.2090   3.2125   3.2234   3.2250   3.2284   3.2630   3.2675   3.3168
     3.3246   3.3293   3.3476   3.3607   3.3733   3.3733   3.3760   3.4097
     3.4139   3.4348   3.4389   3.4391   3.4644   3.4733   3.4749   3.4861
     3.4963   3.5064   3.5151   3.5188   3.5383   3.5391   3.5581   3.5710
     3.5765   3.5921   3.5984   3.6017   3.6211   3.6245   3.6253   3.6260
     3.6621   3.6934   3.6963   3.7152   3.7191   3.7210   3.7305   3.7344
     3.7460   3.7771   3.7906   3.8108   3.8253   3.8494   3.8558   3.8752
     3.9044   3.9166   3.9227   3.9246   3.9308   3.9785   3.9925   4.0058
     4.0127   4.0285   4.0392   4.0393   4.0687   4.0858   4.0914   4.0970
     4.0980   4.1142   4.1204   4.1298   4.1353   4.1426   4.1625   4.1640
     4.1651   4.1712   4.1784   4.1813   4.1972   4.1989   4.1996   4.1999
     4.2102   4.2142   4.2188   4.2309   4.2317   4.2320   4.2374   4.2389
     4.2503   4.2580   4.2679   4.2786   4.2828   4.3154   4.3281   4.3448
     4.3561   4.3627   4.3720   4.3895   4.4067   4.4267   4.4296   4.4345
     4.4626   4.4631   4.4843   4.4913   4.5226   4.5409   4.5502   4.5663
     4.5772   4.5910   4.6080   4.6398   4.6476   4.6523   4.6669   4.6845
     4.6860   4.6992   4.7038   4.7447   4.7457   4.7651   4.7790   4.7976
     4.8060   4.8114   4.8236   4.8283   4.8302   4.8586   4.8723   4.8739
     4.8800   4.8860   4.8884   4.8947   4.9186   4.9464   4.9535   4.9648
     4.9813   4.9915   4.9932   5.0148   5.0229   5.0342   5.0425   5.0588
     5.0608   5.0734   5.0785   5.0866   5.1213   5.1337   5.1353   5.1488
     5.1514   5.1554   5.1612   5.1619   5.1855   5.1903   5.1910   5.2045
     5.2072   5.2222   5.2287   5.2321   5.2393   5.2426   5.2463   5.2586
     5.2646   5.2835   5.2888   5.3122   5.3165   5.3274   5.3314   5.3448
     5.3559   5.3762   5.3814   5.3953   5.3953   5.3991   5.4132   5.4320
     5.4344   5.4463   5.4565   5.4580   5.4594   5.4744   5.4747   5.4952
     5.5090   5.5187   5.5324   5.5362   5.5556   5.5644   5.5681   5.5774
     5.5941   5.6048   5.6221   5.6456   5.6457   5.6473   5.6587   5.6789
     5.6860   5.7125   5.7301   5.7432   5.7497   5.7630   5.7695   5.7725
     5.7768   5.7983   5.8073   5.8107   5.8332   5.8584   5.8602   5.8767
     5.9024   5.9109   5.9468   5.9473   5.9583   5.9637   5.9689   5.9778
     6.0532   6.0566   6.0733   6.0736   6.0893   6.1077   6.1080   6.1087
     6.1234   6.1396   6.1405   6.1507   6.1579   6.1656   6.1821   6.1862
     6.2140   6.2191   6.2335   6.2469   6.2978   6.3311   6.3375   6.3454
     6.3622   6.3651   6.3764   6.3834   6.3851   6.3866   6.3943   6.4092
     6.4165   6.4486   6.4528   6.4781   6.4782   6.4785   6.5017   6.5176
     6.5365   6.5467   6.5482   6.5653   6.6061   6.6349   6.6373   6.6375
     6.6820   6.6919   6.6972   6.7466   6.9342   7.0628   7.1470   7.2577
     7.5255   7.5292   7.5834   7.6862   7.8062   7.8154   7.8495   7.8704
     8.0012   8.1133   8.1926   8.2137   8.2981   8.3496   8.4065   8.4240
     8.5151   8.6487   8.6488   8.6702   8.7883   8.9666   9.0638   9.1465
     9.2313   9.2986   9.3148   9.4965   9.5763   9.6974   9.8242  10.0041
    10.2245  10.2645  10.2983  10.3938  10.5522  10.5646  10.6810  10.9350
    11.0862  11.2966  11.4510  11.5488  11.6656  11.8310  11.9312  12.0007
    12.0634  12.2787  12.3151  12.3562  12.7415  12.7791  12.8736  12.8934
    12.9051  13.0225  13.0938  13.1007  13.1796  13.2273  13.2491  13.2592
    13.2946  13.3790  13.4405  13.4715  13.5039  13.5235  13.7599  13.7659
    13.8139  13.9331  13.9337  13.9393  14.0242  14.0486  14.0696  14.1267
    14.1606  14.2311  14.2431  14.3213  14.3739  14.4007  14.4228  14.5570
    14.6066  14.7688  14.8795

     the Fermi energy is     8.2692 ev

!    total energy              =   -7346.35669869 Ry
     estimated scf accuracy    <       0.00000049 Ry
     smearing contrib. (-TS)   =       0.09487739 Ry
     internal energy E=F+TS    =   -7346.45157608 Ry

     The total energy is F=E-TS. E is the sum of the following terms:
     one-electron contribution =  -33899.32794728 Ry
     hartree contribution      =   17698.45198748 Ry
     xc contribution           =   -3551.00762894 Ry
     ewald contribution        =   12405.43201265 Ry

     convergence has been achieved in  21 iterations

     negative rho (up, down):  1.957E+00 0.000E+00

     Forces acting on atoms (cartesian axes, Ry/au):

     atom    1 type  1   force =     0.00000000   -0.00165671    0.02675328
     atom    2 type  1   force =     0.00000000   -0.00165637    0.02675271
     atom    3 type  1   force =     0.00000000   -0.00165830    0.02675232
     atom    4 type  1   force =     0.00000000   -0.00165704    0.02675353
     atom    5 type  1   force =     0.00000014    0.00336928   -0.01665484
     atom    6 type  1   force =    -0.00000014    0.00336928   -0.01665484
     atom    7 type  1   force =     0.00000000    0.00336920   -0.01665546
     atom    8 type  1   force =    -0.00000000    0.00336920   -0.01665546
     atom    9 type  1   force =     0.00000000   -0.00161434   -0.00975329
     atom   10 type  1   force =     0.00000000   -0.00161385   -0.00975378
     atom   11 type  1   force =     0.00000000   -0.00161362   -0.00975429
     atom   12 type  1   force =     0.00000000   -0.00161359   -0.00975368
     atom   13 type  1   force =     0.00000000    0.00056326   -0.00395397
     atom   14 type  1   force =     0.00000000    0.00056381   -0.00395423
     atom   15 type  1   force =     0.00000009   -0.00053596    0.00448191
     atom   16 type  1   force =    -0.00000009   -0.00053596    0.00448191
     atom   17 type  1   force =     0.00000000    0.00056336   -0.00395418
     atom   18 type  1   force =     0.00000000    0.00056332   -0.00395383
     atom   19 type  1   force =     0.00000000   -0.00053589    0.00448192
     atom   20 type  1   force =    -0.00000000   -0.00053589    0.00448192
     atom   21 type  1   force =     0.00000000    0.00028207   -0.00080665
     atom   22 type  1   force =     0.00000000    0.00028221   -0.00080665
     atom   23 type  1   force =    -0.00000012   -0.00044673   -0.00057307
     atom   24 type  1   force =     0.00000000    0.00028192   -0.00080673
     atom   25 type  1   force =    -0.00000007   -0.00044671   -0.00057305
     atom   26 type  1   force =     0.00000012   -0.00044673   -0.00057307
     atom   27 type  1   force =     0.00000007   -0.00044671   -0.00057305
     atom   28 type  1   force =     0.00000000    0.00028212   -0.00080670
     atom   29 type  1   force =     0.00000001   -0.00018338    0.00037686
     atom   30 type  1   force =     0.00000000    0.00019447   -0.00058527
     atom   31 type  1   force =     0.00000003   -0.00018329    0.00037690
     atom   32 type  1   force =    -0.00000003   -0.00018329    0.00037690
     atom   33 type  1   force =    -0.00000001   -0.00018338    0.00037686
     atom   34 type  1   force =     0.00000000    0.00019456   -0.00058520
     atom   35 type  1   force =     0.00000000    0.00019466   -0.00058529
     atom   36 type  1   force =     0.00000000    0.00019463   -0.00058529
     atom   37 type  1   force =     0.00000000    0.00018519   -0.00037975
     atom   38 type  1   force =     0.00000000    0.00018502   -0.00037991
     atom   39 type  1   force =     0.00000006   -0.00019389    0.00058406
     atom   40 type  1   force =    -0.00000006   -0.00019389    0.00058406
     atom   41 type  1   force =     0.00000007   -0.00019398    0.00058414
     atom   42 type  1   force =     0.00000000    0.00018493   -0.00037968
     atom   43 type  1   force =     0.00000000    0.00018513   -0.00037958
     atom   44 type  1   force =    -0.00000007   -0.00019398    0.00058414
     atom   45 type  1   force =     0.00000000    0.00044729    0.00057785
     atom   46 type  1   force =     0.00000000    0.00044740    0.00057806
     atom   47 type  1   force =     0.00000000    0.00044747    0.00057796
     atom   48 type  1   force =     0.00000000    0.00044733    0.00057787
     atom   49 type  1   force =    -0.00000003   -0.00028154    0.00080908
     atom   50 type  1   force =     0.00000003   -0.00028154    0.00080908
     atom   51 type  1   force =    -0.00000005   -0.00028164    0.00080885
     atom   52 type  1   force =     0.00000005   -0.00028164    0.00080885
     atom   53 type  1   force =     0.00000000    0.00053690   -0.00448645
     atom   54 type  1   force =    -0.00000005   -0.00056262    0.00394608
     atom   55 type  1   force =     0.00000007   -0.00056291    0.00394622
     atom   56 type  1   force =     0.00000005   -0.00056262    0.00394608
     atom   57 type  1   force =    -0.00000007   -0.00056291    0.00394622
     atom   58 type  1   force =     0.00000000    0.00053676   -0.00448671
     atom   59 type  1   force =     0.00000000    0.00053677   -0.00448663
     atom   60 type  1   force =     0.00000000    0.00053678   -0.00448667
     atom   61 type  1   force =    -0.00000009    0.00161202    0.00975239
     atom   62 type  1   force =     0.00000000   -0.00336723    0.01665285
     atom   63 type  1   force =     0.00000000   -0.00336781    0.01665251
     atom   64 type  1   force =     0.00000000   -0.00336788    0.01665249
     atom   65 type  1   force =     0.00000000   -0.00336770    0.01665257
     atom   66 type  1   force =     0.00000013    0.00161228    0.00975229
     atom   67 type  1   force =     0.00000009    0.00161202    0.00975239
     atom   68 type  1   force =    -0.00000013    0.00161228    0.00975229
     atom   69 type  1   force =    -0.00000072    0.00165278   -0.02673927
     atom   70 type  1   force =     0.00000022    0.00165152   -0.02673980
     atom   71 type  1   force =     0.00000072    0.00165278   -0.02673927
     atom   72 type  1   force =    -0.00000022    0.00165152   -0.02673980

     Total force =     0.095610     Total SCF correction =     0.003272
 
     init_run     :     81.32s CPU     11.18s WALL (       1 calls)
     electrons    :   4745.59s CPU    659.31s WALL (       1 calls)
     forces       :     28.97s CPU      3.73s WALL (       1 calls)

     Called by init_run:
     wfcinit      :     78.03s CPU     10.08s WALL (       1 calls)
     potinit      :      1.11s CPU      0.17s WALL (       1 calls)
     hinit0       :      1.12s CPU      0.38s WALL (       1 calls)

     Called by electrons:
     c_bands      :   4261.84s CPU    594.44s WALL (      22 calls)
     sum_band     :    457.54s CPU     61.04s WALL (      22 calls)
     v_of_rho     :     11.87s CPU      1.62s WALL (      22 calls)
     newd         :     10.02s CPU      1.65s WALL (      22 calls)
     mix_rho      :      3.12s CPU      0.42s WALL (      22 calls)

     Called by c_bands:
     init_us_2    :     16.87s CPU      2.26s WALL (     414 calls)
     cegterg      :   3978.54s CPU    508.64s WALL (     198 calls)

     Called by *egterg:
     cdiaghg      :   1357.11s CPU    173.57s WALL (    1219 calls)
     h_psi        :   1635.11s CPU    209.22s WALL (    1237 calls)
     s_psi        :    177.78s CPU     22.39s WALL (    1237 calls)
     g_psi        :      3.68s CPU      0.47s WALL (    1030 calls)

     Called by h_psi:
     h_psi:calbec :    234.33s CPU     29.75s WALL (    1237 calls)
     vloc_psi     :   1204.80s CPU    154.67s WALL (    1237 calls)
     add_vuspsi   :    186.31s CPU     23.51s WALL (    1237 calls)

     General routines
     calbec       :    346.73s CPU     44.00s WALL (    1471 calls)
     fft          :      5.85s CPU      0.81s WALL (     296 calls)
     ffts         :      0.49s CPU      0.07s WALL (      44 calls)
     fftw         :   1410.80s CPU    180.59s WALL (  514398 calls)
     interpolate  :      0.73s CPU      0.10s WALL (      22 calls)
 
     Parallel routines
     fft_scatt_xy :    125.60s CPU     16.02s WALL (  514738 calls)
     fft_scatt_yz :    757.06s CPU     98.70s WALL (  514738 calls)
 
     PWSCF        :      1h20m CPU  11m14.76s WALL

 
   This run was terminated on:   4:48:16   8Sep2021            

=------------------------------------------------------------------------------=
   JOB DONE.
=------------------------------------------------------------------------------=
