
     Program PWSCF v.6.6 starts on 22Sep2021 at 22: 0:58 

     This program is part of the open-source Quantum ESPRESSO suite
     for quantum simulation of materials; please cite
         "P. Giannozzi et al., J. Phys.:Condens. Matter 21 395502 (2009);
         "P. Giannozzi et al., J. Phys.:Condens. Matter 29 465901 (2017);
          URL http://www.quantum-espresso.org", 
     in publications or presentations arising from this work. More details at
     http://www.quantum-espresso.org/quote

     Parallel version (MPI & OpenMP), running on     384 processor cores
     Number of MPI processes:               192
     Threads/MPI process:                     2

     MPI processes distributed on     8 nodes
     R & G space division:  proc/nbgrp/npool/nimage =     192
     Fft bands division:     nmany     =       1
     Reading input from ../inputs/input_ausurf_288

     Current dimensions of program PWSCF are:
     Max number of different atomic species (ntypx) = 10
     Max number of k-points (npk) =  40000
     Max angular momentum in pseudopotentials (lmaxx) =  3

     Subspace diagonalization in iterative solution of the eigenvalue problem:
     one sub-group per band group will be used
     ELPA distributed-memory algorithm (size of sub-group: 13* 13 procs)

     Found symmetry operation: I + (  0.2500  0.0000  0.0000)
     This is a supercell, fractional translations are disabled
 
     Parallelization info
     --------------------
     sticks:   dense  smooth     PW     G-vecs:    dense   smooth      PW
     Min         124      57     14                29674     9169    1210
     Max         125      58     15                29699     9183    1235
     Sum       23985   10951   2855              5700737  1762171  235477
 

     Title: 
      Ausurf                                                                    


     bravais-lattice index     =            8
     lattice parameter (alat)  =      22.2988  a.u.
     unit-cell volume          =   51555.9485 (a.u.)^3
     number of atoms/cell      =          288
     number of atomic types    =            1
     number of electrons       =      3168.00
     number of Kohn-Sham states=         1901
     kinetic-energy cutoff     =      40.0000  Ry
     charge density cutoff     =     350.0000  Ry
     convergence threshold     =      1.0E-06
     mixing beta               =       0.7000
     number of iterations used =            8  TF        mixing
     Exchange-correlation=  SLA  PW   PBE  PBE
                           (   1   4   3   4   0   0   0)

     celldm(1)=  22.298768  celldm(2)=   1.732051  celldm(3)=   2.684575
     celldm(4)=   0.000000  celldm(5)=   0.000000  celldm(6)=   0.000000

     crystal axes: (cart. coord. in units of alat)
               a(1) = (   1.000000   0.000000   0.000000 )  
               a(2) = (   0.000000   1.732051   0.000000 )  
               a(3) = (   0.000000   0.000000   2.684575 )  

     reciprocal axes: (cart. coord. in units 2 pi/alat)
               b(1) = (  1.000000  0.000000  0.000000 )  
               b(2) = (  0.000000  0.577350  0.000000 )  
               b(3) = (  0.000000  0.000000  0.372498 )  


     PseudoPot. # 1 for Au read from file:
     /marconi/home/userexternal/czeni000/dft_src/pseudo/Au.pbe-nd-van.UPF
     MD5 check sum: deb5c07af10777505a79e28f5b4b4115
     Pseudo is Ultrasoft + core correction, Zval = 11.0
     Generated by new atomic code, or converted to UPF format
     Using radial grid of  985 points,  3 beta functions with: 
                l(1) =   1
                l(2) =   2
                l(3) =   2
     Q(r) pseudized with  8 coefficients,  rinner =    1.100   1.100   1.100
                                                       1.100   1.100

     atomic species   valence    mass     pseudopotential
        Au            11.00   196.96000     Au( 1.00)

      2 Sym. Ops. (no inversion) found



   Cartesian axes

     site n.     atom                  positions (alat units)
         1           Au  tau(   1) = (   0.0000000   0.0000000   0.0000000  )
         2           Au  tau(   2) = (   0.2500000   0.0000000   0.0000000  )
         3           Au  tau(   3) = (   0.5000000   0.0000000   0.0000000  )
         4           Au  tau(   4) = (   0.0000000   0.4330127   0.0000000  )
         5           Au  tau(   5) = (   0.7500000   0.0000000   0.0000000  )
         6           Au  tau(   6) = (   0.2500000   0.4330127   0.0000000  )
         7           Au  tau(   7) = (   0.5000000   0.4330127   0.0000000  )
         8           Au  tau(   8) = (   0.0000000   0.8660254   0.0000000  )
         9           Au  tau(   9) = (   0.7500000   0.4330127   0.0000000  )
        10           Au  tau(  10) = (   0.2500000   0.8660254   0.0000000  )
        11           Au  tau(  11) = (   0.5000000   0.8660254   0.0000000  )
        12           Au  tau(  12) = (   0.0000000   1.2990381   0.0000000  )
        13           Au  tau(  13) = (   0.7500000   0.8660254   0.0000000  )
        14           Au  tau(  14) = (   0.2500000   1.2990381   0.0000000  )
        15           Au  tau(  15) = (   0.5000000   1.2990381   0.0000000  )
        16           Au  tau(  16) = (   0.7500000   1.2990381   0.0000000  )
        17           Au  tau(  17) = (   0.1250000   0.0721688   0.2041242  )
        18           Au  tau(  18) = (   0.3750000   0.0721688   0.2041242  )
        19           Au  tau(  19) = (   0.6250000   0.0721688   0.2041242  )
        20           Au  tau(  20) = (   0.1250000   0.5051815   0.2041242  )
        21           Au  tau(  21) = (   0.6250000   0.5051815   0.2041242  )
        22           Au  tau(  22) = (   0.8750000   0.0721688   0.2041242  )
        23           Au  tau(  23) = (   0.1250000   0.9381942   0.2041242  )
        24           Au  tau(  24) = (   0.3750000   0.5051815   0.2041242  )
        25           Au  tau(  25) = (   0.3750000   0.9381942   0.2041242  )
        26           Au  tau(  26) = (   0.8750000   0.5051815   0.2041242  )
        27           Au  tau(  27) = (   0.2500000   0.2886752   0.2041242  )
        28           Au  tau(  28) = (   0.2500000   0.7216878   0.2041242  )
        29           Au  tau(  29) = (   1.0000000   0.2886752   0.2041242  )
        30           Au  tau(  30) = (   0.3750000   1.3712069   0.2041242  )
        31           Au  tau(  31) = (   0.6250000   0.9381942   0.2041242  )
        32           Au  tau(  32) = (   0.5000000   0.2886752   0.2041242  )
        33           Au  tau(  33) = (   0.7500000   0.2886752   0.2041242  )
        34           Au  tau(  34) = (   0.1250000   1.3712069   0.2041242  )
        35           Au  tau(  35) = (   0.6250000   1.3712069   0.2041242  )
        36           Au  tau(  36) = (   0.8750000   0.9381942   0.2041242  )
        37           Au  tau(  37) = (   0.8750000   1.3712069   0.2041242  )
        38           Au  tau(  38) = (   0.5000000   0.7216878   0.2041242  )
        39           Au  tau(  39) = (   0.7500000   0.7216878   0.2041242  )
        40           Au  tau(  40) = (   0.7500000   1.1547005   0.2041242  )
        41           Au  tau(  41) = (   0.2500000   1.1547005   0.2041242  )
        42           Au  tau(  42) = (   0.5000000   1.1547005   0.2041242  )
        43           Au  tau(  43) = (   1.0000000   0.7216878   0.2041242  )
        44           Au  tau(  44) = (   0.2500000   1.5877132   0.2041242  )
        45           Au  tau(  45) = (   0.5000000   1.5877132   0.2041242  )
        46           Au  tau(  46) = (   1.0000000   1.1547005   0.2041242  )
        47           Au  tau(  47) = (   0.7500000   1.5877132   0.2041242  )
        48           Au  tau(  48) = (   1.0000000   1.5877132   0.2041242  )
        49           Au  tau(  49) = (   0.2500000   0.1443375   0.4082483  )
        50           Au  tau(  50) = (   0.6250000   0.3608439   0.4082483  )
        51           Au  tau(  51) = (   0.5000000   0.1443375   0.4082483  )
        52           Au  tau(  52) = (   0.7500000   0.1443375   0.4082483  )
        53           Au  tau(  53) = (   0.1250000   0.3608439   0.4082483  )
        54           Au  tau(  54) = (   0.3750000   0.3608439   0.4082483  )
        55           Au  tau(  55) = (   0.2500000   0.5773503   0.4082483  )
        56           Au  tau(  56) = (   0.5000000   0.5773503   0.4082483  )
        57           Au  tau(  57) = (   0.5000000   1.0103630   0.4082483  )
        58           Au  tau(  58) = (   0.5000000   1.4433757   0.4082483  )
        59           Au  tau(  59) = (   0.7500000   0.5773503   0.4082483  )
        60           Au  tau(  60) = (   1.0000000   0.1443375   0.4082483  )
        61           Au  tau(  61) = (   0.1250000   0.7938566   0.4082483  )
        62           Au  tau(  62) = (   0.1250000   1.2268693   0.4082483  )
        63           Au  tau(  63) = (   0.1250000   1.6598820   0.4082483  )
        64           Au  tau(  64) = (   0.3750000   0.7938566   0.4082483  )
        65           Au  tau(  65) = (   0.3750000   1.2268693   0.4082483  )
        66           Au  tau(  66) = (   0.8750000   0.3608439   0.4082483  )
        67           Au  tau(  67) = (   0.8750000   0.7938566   0.4082483  )
        68           Au  tau(  68) = (   0.8750000   1.2268693   0.4082483  )
        69           Au  tau(  69) = (   0.8750000   1.6598820   0.4082483  )
        70           Au  tau(  70) = (   0.2500000   1.0103630   0.4082483  )
        71           Au  tau(  71) = (   0.2500000   1.4433757   0.4082483  )
        72           Au  tau(  72) = (   0.7500000   1.0103630   0.4082483  )
        73           Au  tau(  73) = (   0.7500000   1.4433757   0.4082483  )
        74           Au  tau(  74) = (   1.0000000   0.5773503   0.4082483  )
        75           Au  tau(  75) = (   1.0000000   1.0103630   0.4082483  )
        76           Au  tau(  76) = (   1.0000000   1.4433757   0.4082483  )
        77           Au  tau(  77) = (   0.3750000   1.6598820   0.4082483  )
        78           Au  tau(  78) = (   0.6250000   0.7938566   0.4082483  )
        79           Au  tau(  79) = (   0.6250000   1.2268693   0.4082483  )
        80           Au  tau(  80) = (   0.6250000   1.6598820   0.4082483  )
        81           Au  tau(  81) = (   0.6250000   0.2165064   0.6123725  )
        82           Au  tau(  82) = (   0.0000000   0.0000000   0.6123725  )
        83           Au  tau(  83) = (   0.2500000   0.0000000   0.6123725  )
        84           Au  tau(  84) = (   0.5000000   0.0000000   0.6123725  )
        85           Au  tau(  85) = (   0.1250000   0.2165064   0.6123725  )
        86           Au  tau(  86) = (   0.0000000   0.8660254   0.6123725  )
        87           Au  tau(  87) = (   0.2500000   0.4330127   0.6123725  )
        88           Au  tau(  88) = (   0.2500000   0.8660254   0.6123725  )
        89           Au  tau(  89) = (   0.5000000   0.4330127   0.6123725  )
        90           Au  tau(  90) = (   0.7500000   0.4330127   0.6123725  )
        91           Au  tau(  91) = (   0.1250000   0.6495191   0.6123725  )
        92           Au  tau(  92) = (   0.3750000   0.2165064   0.6123725  )
        93           Au  tau(  93) = (   0.3750000   0.6495191   0.6123725  )
        94           Au  tau(  94) = (   0.6250000   0.6495191   0.6123725  )
        95           Au  tau(  95) = (   0.8750000   0.2165064   0.6123725  )
        96           Au  tau(  96) = (   0.0000000   0.4330127   0.6123725  )
        97           Au  tau(  97) = (   0.2500000   1.2990381   0.6123725  )
        98           Au  tau(  98) = (   0.5000000   1.2990381   0.6123725  )
        99           Au  tau(  99) = (   0.7500000   0.0000000   0.6123725  )
       100           Au  tau( 100) = (   0.7500000   1.2990381   0.6123725  )
       101           Au  tau( 101) = (   0.1250000   1.0825318   0.6123725  )
       102           Au  tau( 102) = (   0.1250000   1.5155445   0.6123725  )
       103           Au  tau( 103) = (   0.3750000   1.0825318   0.6123725  )
       104           Au  tau( 104) = (   0.3750000   1.5155445   0.6123725  )
       105           Au  tau( 105) = (   0.6250000   1.0825318   0.6123725  )
       106           Au  tau( 106) = (   0.8750000   0.6495191   0.6123725  )
       107           Au  tau( 107) = (   0.8750000   1.0825318   0.6123725  )
       108           Au  tau( 108) = (   0.0000000   1.2990381   0.6123725  )
       109           Au  tau( 109) = (   0.5000000   0.8660254   0.6123725  )
       110           Au  tau( 110) = (   0.7500000   0.8660254   0.6123725  )
       111           Au  tau( 111) = (   0.6250000   1.5155445   0.6123725  )
       112           Au  tau( 112) = (   0.8750000   1.5155445   0.6123725  )
       113           Au  tau( 113) = (   0.1250000   0.5051815   0.8164966  )
       114           Au  tau( 114) = (   0.8750000   0.0721688   0.8164966  )
       115           Au  tau( 115) = (   0.5000000   0.2886752   0.8164966  )
       116           Au  tau( 116) = (   0.1250000   0.0721688   0.8164966  )
       117           Au  tau( 117) = (   0.3750000   0.0721688   0.8164966  )
       118           Au  tau( 118) = (   0.3750000   0.5051815   0.8164966  )
       119           Au  tau( 119) = (   0.6250000   0.0721688   0.8164966  )
       120           Au  tau( 120) = (   0.2500000   0.2886752   0.8164966  )
       121           Au  tau( 121) = (   0.2500000   0.7216878   0.8164966  )
       122           Au  tau( 122) = (   0.5000000   0.7216878   0.8164966  )
       123           Au  tau( 123) = (   0.7500000   0.2886752   0.8164966  )
       124           Au  tau( 124) = (   1.0000000   0.2886752   0.8164966  )
       125           Au  tau( 125) = (   0.1250000   0.9381942   0.8164966  )
       126           Au  tau( 126) = (   0.1250000   1.3712069   0.8164966  )
       127           Au  tau( 127) = (   0.3750000   0.9381942   0.8164966  )
       128           Au  tau( 128) = (   0.3750000   1.3712069   0.8164966  )
       129           Au  tau( 129) = (   0.6250000   0.5051815   0.8164966  )
       130           Au  tau( 130) = (   0.6250000   0.9381942   0.8164966  )
       131           Au  tau( 131) = (   0.6250000   1.3712069   0.8164966  )
       132           Au  tau( 132) = (   0.8750000   0.5051815   0.8164966  )
       133           Au  tau( 133) = (   0.8750000   0.9381942   0.8164966  )
       134           Au  tau( 134) = (   0.8750000   1.3712069   0.8164966  )
       135           Au  tau( 135) = (   0.2500000   1.1547005   0.8164966  )
       136           Au  tau( 136) = (   0.2500000   1.5877132   0.8164966  )
       137           Au  tau( 137) = (   0.5000000   1.1547005   0.8164966  )
       138           Au  tau( 138) = (   0.5000000   1.5877132   0.8164966  )
       139           Au  tau( 139) = (   0.7500000   0.7216878   0.8164966  )
       140           Au  tau( 140) = (   0.7500000   1.1547005   0.8164966  )
       141           Au  tau( 141) = (   0.7500000   1.5877132   0.8164966  )
       142           Au  tau( 142) = (   1.0000000   0.7216878   0.8164966  )
       143           Au  tau( 143) = (   1.0000000   1.1547005   0.8164966  )
       144           Au  tau( 144) = (   1.0000000   1.5877132   0.8164966  )
       145           Au  tau( 145) = (   0.2500000   0.1443375   1.0206208  )
       146           Au  tau( 146) = (   0.5000000   0.1443375   1.0206208  )
       147           Au  tau( 147) = (   0.7500000   0.1443375   1.0206208  )
       148           Au  tau( 148) = (   0.1250000   0.3608439   1.0206208  )
       149           Au  tau( 149) = (   0.3750000   0.3608439   1.0206208  )
       150           Au  tau( 150) = (   0.3750000   0.7938566   1.0206208  )
       151           Au  tau( 151) = (   0.2500000   0.5773503   1.0206208  )
       152           Au  tau( 152) = (   0.2500000   1.0103630   1.0206208  )
       153           Au  tau( 153) = (   0.2500000   1.4433757   1.0206208  )
       154           Au  tau( 154) = (   0.5000000   0.5773503   1.0206208  )
       155           Au  tau( 155) = (   0.5000000   1.0103630   1.0206208  )
       156           Au  tau( 156) = (   0.5000000   1.4433757   1.0206208  )
       157           Au  tau( 157) = (   0.7500000   0.5773503   1.0206208  )
       158           Au  tau( 158) = (   0.7500000   1.0103630   1.0206208  )
       159           Au  tau( 159) = (   0.7500000   1.4433757   1.0206208  )
       160           Au  tau( 160) = (   1.0000000   0.1443375   1.0206208  )
       161           Au  tau( 161) = (   1.0000000   0.5773503   1.0206208  )
       162           Au  tau( 162) = (   1.0000000   1.0103630   1.0206208  )
       163           Au  tau( 163) = (   1.0000000   1.4433757   1.0206208  )
       164           Au  tau( 164) = (   0.1250000   0.7938566   1.0206208  )
       165           Au  tau( 165) = (   0.1250000   1.2268693   1.0206208  )
       166           Au  tau( 166) = (   0.1250000   1.6598820   1.0206208  )
       167           Au  tau( 167) = (   0.3750000   1.2268693   1.0206208  )
       168           Au  tau( 168) = (   0.3750000   1.6598820   1.0206208  )
       169           Au  tau( 169) = (   0.6250000   0.3608439   1.0206208  )
       170           Au  tau( 170) = (   0.6250000   0.7938566   1.0206208  )
       171           Au  tau( 171) = (   0.6250000   1.2268693   1.0206208  )
       172           Au  tau( 172) = (   0.6250000   1.6598820   1.0206208  )
       173           Au  tau( 173) = (   0.8750000   0.3608439   1.0206208  )
       174           Au  tau( 174) = (   0.8750000   0.7938566   1.0206208  )
       175           Au  tau( 175) = (   0.8750000   1.2268693   1.0206208  )
       176           Au  tau( 176) = (   0.8750000   1.6598820   1.0206208  )
       177           Au  tau( 177) = (   0.0000000   0.0000000   1.2247448  )
       178           Au  tau( 178) = (   0.0000000   0.4330127   1.2247448  )
       179           Au  tau( 179) = (   0.2500000   0.0000000   1.2247448  )
       180           Au  tau( 180) = (   0.2500000   0.4330127   1.2247448  )
       181           Au  tau( 181) = (   0.5000000   0.0000000   1.2247448  )
       182           Au  tau( 182) = (   0.7500000   0.0000000   1.2247448  )
       183           Au  tau( 183) = (   0.1250000   0.2165064   1.2247448  )
       184           Au  tau( 184) = (   0.3750000   0.2165064   1.2247448  )
       185           Au  tau( 185) = (   0.6250000   0.2165064   1.2247448  )
       186           Au  tau( 186) = (   0.0000000   1.2990381   1.2247448  )
       187           Au  tau( 187) = (   0.2500000   0.8660254   1.2247448  )
       188           Au  tau( 188) = (   0.2500000   1.2990381   1.2247448  )
       189           Au  tau( 189) = (   0.5000000   0.8660254   1.2247448  )
       190           Au  tau( 190) = (   0.5000000   1.2990381   1.2247448  )
       191           Au  tau( 191) = (   0.7500000   0.8660254   1.2247448  )
       192           Au  tau( 192) = (   0.7500000   1.2990381   1.2247448  )
       193           Au  tau( 193) = (   0.1250000   0.6495191   1.2247448  )
       194           Au  tau( 194) = (   0.1250000   1.0825318   1.2247448  )
       195           Au  tau( 195) = (   0.1250000   1.5155445   1.2247448  )
       196           Au  tau( 196) = (   0.3750000   0.6495191   1.2247448  )
       197           Au  tau( 197) = (   0.3750000   1.0825318   1.2247448  )
       198           Au  tau( 198) = (   0.3750000   1.5155445   1.2247448  )
       199           Au  tau( 199) = (   0.6250000   0.6495191   1.2247448  )
       200           Au  tau( 200) = (   0.6250000   1.0825318   1.2247448  )
       201           Au  tau( 201) = (   0.6250000   1.5155445   1.2247448  )
       202           Au  tau( 202) = (   0.8750000   0.2165064   1.2247448  )
       203           Au  tau( 203) = (   0.8750000   0.6495191   1.2247448  )
       204           Au  tau( 204) = (   0.8750000   1.0825318   1.2247448  )
       205           Au  tau( 205) = (   0.8750000   1.5155445   1.2247448  )
       206           Au  tau( 206) = (   0.0000000   0.8660254   1.2247448  )
       207           Au  tau( 207) = (   0.5000000   0.4330127   1.2247448  )
       208           Au  tau( 208) = (   0.7500000   0.4330127   1.2247448  )
       209           Au  tau( 209) = (   0.1250000   0.9381942   1.4288690  )
       210           Au  tau( 210) = (   0.3750000   0.9381942   1.4288690  )
       211           Au  tau( 211) = (   0.6250000   0.9381942   1.4288690  )
       212           Au  tau( 212) = (   0.8750000   0.5051815   1.4288690  )
       213           Au  tau( 213) = (   0.2500000   1.1547005   1.4288690  )
       214           Au  tau( 214) = (   0.5000000   0.7216878   1.4288690  )
       215           Au  tau( 215) = (   0.7500000   0.7216878   1.4288690  )
       216           Au  tau( 216) = (   1.0000000   0.7216878   1.4288690  )
       217           Au  tau( 217) = (   0.1250000   0.0721688   1.4288690  )
       218           Au  tau( 218) = (   0.1250000   0.5051815   1.4288690  )
       219           Au  tau( 219) = (   0.1250000   1.3712069   1.4288690  )
       220           Au  tau( 220) = (   0.3750000   0.0721688   1.4288690  )
       221           Au  tau( 221) = (   0.3750000   0.5051815   1.4288690  )
       222           Au  tau( 222) = (   0.6250000   0.0721688   1.4288690  )
       223           Au  tau( 223) = (   0.6250000   0.5051815   1.4288690  )
       224           Au  tau( 224) = (   0.8750000   0.0721688   1.4288690  )
       225           Au  tau( 225) = (   0.8750000   0.9381942   1.4288690  )
       226           Au  tau( 226) = (   0.2500000   0.2886752   1.4288690  )
       227           Au  tau( 227) = (   0.2500000   0.7216878   1.4288690  )
       228           Au  tau( 228) = (   0.2500000   1.5877132   1.4288690  )
       229           Au  tau( 229) = (   0.5000000   0.2886752   1.4288690  )
       230           Au  tau( 230) = (   0.5000000   1.1547005   1.4288690  )
       231           Au  tau( 231) = (   0.7500000   0.2886752   1.4288690  )
       232           Au  tau( 232) = (   0.7500000   1.1547005   1.4288690  )
       233           Au  tau( 233) = (   1.0000000   0.2886752   1.4288690  )
       234           Au  tau( 234) = (   1.0000000   1.1547005   1.4288690  )
       235           Au  tau( 235) = (   0.3750000   1.3712069   1.4288690  )
       236           Au  tau( 236) = (   0.6250000   1.3712069   1.4288690  )
       237           Au  tau( 237) = (   0.8750000   1.3712069   1.4288690  )
       238           Au  tau( 238) = (   0.5000000   1.5877132   1.4288690  )
       239           Au  tau( 239) = (   0.7500000   1.5877132   1.4288690  )
       240           Au  tau( 240) = (   1.0000000   1.5877132   1.4288690  )
       241           Au  tau( 241) = (   0.2500000   1.0103630   1.6329931  )
       242           Au  tau( 242) = (   0.5000000   1.0103630   1.6329931  )
       243           Au  tau( 243) = (   0.7500000   0.5773503   1.6329931  )
       244           Au  tau( 244) = (   1.0000000   0.5773503   1.6329931  )
       245           Au  tau( 245) = (   0.1250000   1.2268693   1.6329931  )
       246           Au  tau( 246) = (   0.3750000   0.7938566   1.6329931  )
       247           Au  tau( 247) = (   0.6250000   0.7938566   1.6329931  )
       248           Au  tau( 248) = (   0.8750000   0.7938566   1.6329931  )
       249           Au  tau( 249) = (   0.2500000   0.1443375   1.6329931  )
       250           Au  tau( 250) = (   0.2500000   0.5773503   1.6329931  )
       251           Au  tau( 251) = (   0.2500000   1.4433757   1.6329931  )
       252           Au  tau( 252) = (   0.5000000   0.1443375   1.6329931  )
       253           Au  tau( 253) = (   0.5000000   0.5773503   1.6329931  )
       254           Au  tau( 254) = (   0.7500000   0.1443375   1.6329931  )
       255           Au  tau( 255) = (   0.7500000   1.0103630   1.6329931  )
       256           Au  tau( 256) = (   1.0000000   0.1443375   1.6329931  )
       257           Au  tau( 257) = (   1.0000000   1.0103630   1.6329931  )
       258           Au  tau( 258) = (   0.1250000   0.3608439   1.6329931  )
       259           Au  tau( 259) = (   0.1250000   0.7938566   1.6329931  )
       260           Au  tau( 260) = (   0.1250000   1.6598820   1.6329931  )
       261           Au  tau( 261) = (   0.3750000   0.3608439   1.6329931  )
       262           Au  tau( 262) = (   0.3750000   1.2268693   1.6329931  )
       263           Au  tau( 263) = (   0.6250000   0.3608439   1.6329931  )
       264           Au  tau( 264) = (   0.6250000   1.2268693   1.6329931  )
       265           Au  tau( 265) = (   0.8750000   0.3608439   1.6329931  )
       266           Au  tau( 266) = (   0.8750000   1.2268693   1.6329931  )
       267           Au  tau( 267) = (   0.5000000   1.4433757   1.6329931  )
       268           Au  tau( 268) = (   0.7500000   1.4433757   1.6329931  )
       269           Au  tau( 269) = (   1.0000000   1.4433757   1.6329931  )
       270           Au  tau( 270) = (   0.3750000   1.6598820   1.6329931  )
       271           Au  tau( 271) = (   0.6250000   1.6598820   1.6329931  )
       272           Au  tau( 272) = (   0.8750000   1.6598820   1.6329931  )
       273           Au  tau( 273) = (   0.1250000   1.0825318   1.8371173  )
       274           Au  tau( 274) = (   0.3750000   1.0825318   1.8371173  )
       275           Au  tau( 275) = (   0.6250000   0.6495191   1.8371173  )
       276           Au  tau( 276) = (   0.8750000   0.6495191   1.8371173  )
       277           Au  tau( 277) = (   0.1250000   0.2165064   1.8371173  )
       278           Au  tau( 278) = (   0.1250000   0.6495191   1.8371173  )
       279           Au  tau( 279) = (   0.1250000   1.5155445   1.8371173  )
       280           Au  tau( 280) = (   0.3750000   0.2165064   1.8371173  )
       281           Au  tau( 281) = (   0.3750000   0.6495191   1.8371173  )
       282           Au  tau( 282) = (   0.6250000   0.2165064   1.8371173  )
       283           Au  tau( 283) = (   0.6250000   1.0825318   1.8371173  )
       284           Au  tau( 284) = (   0.8750000   0.2165064   1.8371173  )
       285           Au  tau( 285) = (   0.8750000   1.0825318   1.8371173  )
       286           Au  tau( 286) = (   0.8750000   1.5155445   1.8371173  )
       287           Au  tau( 287) = (   0.3750000   1.5155445   1.8371173  )
       288           Au  tau( 288) = (   0.6250000   1.5155445   1.8371173  )

     number of k points=     6  Marzari-Vanderbilt smearing, width (Ry)=  0.0500
                       cart. coord. in units 2pi/alat
        k(    1) = (   0.0833333   0.0962250   0.0000000), wk =   0.4444444
        k(    2) = (   0.0833333  -0.2886751   0.0000000), wk =   0.2222222
        k(    3) = (   0.2500000   0.0962250   0.0000000), wk =   0.4444444
        k(    4) = (   0.2500000  -0.2886751   0.0000000), wk =   0.2222222
        k(    5) = (   0.4166667   0.0962250   0.0000000), wk =   0.4444444
        k(    6) = (   0.4166667  -0.2886751   0.0000000), wk =   0.2222222

     Dense  grid:  5700737 G-vectors     FFT dimensions: ( 135, 240, 360)

     Smooth grid:  1762171 G-vectors     FFT dimensions: (  90, 160, 243)

     Estimated max dynamical RAM per process >     754.99 MB

     Estimated total dynamical RAM >     141.56 GB

     Initial potential from superposition of free atoms

     starting charge 3164.65577, renormalised to 3168.00000

     negative rho (up, down):  7.682E+00 0.000E+00
     Starting wfcs are 2592 randomized atomic wfcs

     total cpu time spent up to now is       89.4 secs

     Self-consistent Calculation

     iteration #  1     ecut=    40.00 Ry     beta= 0.70
     Davidson diagonalization with overlap
     ethr =  1.00E-02,  avg # of iterations =  3.0

     Threshold (ethr) on eigenvalues was too large:
     Diagonalizing with lowered threshold

     Davidson diagonalization with overlap
     ethr =  3.34E-04,  avg # of iterations =  4.2

     negative rho (up, down):  7.304E+00 0.000E+00

     total cpu time spent up to now is      520.3 secs

     total energy              =  -29385.07985027 Ry
     estimated scf accuracy    <      12.62038505 Ry

     iteration #  2     ecut=    40.00 Ry     beta= 0.70
     Davidson diagonalization with overlap
     ethr =  3.98E-04,  avg # of iterations =  1.5

     negative rho (up, down):  7.713E+00 0.000E+00

     total cpu time spent up to now is      704.2 secs

     total energy              =  -29385.64931329 Ry
     estimated scf accuracy    <       5.62920286 Ry

     iteration #  3     ecut=    40.00 Ry     beta= 0.70
     Davidson diagonalization with overlap
     ethr =  1.78E-04,  avg # of iterations =  3.8

     negative rho (up, down):  8.106E+00 0.000E+00

     total cpu time spent up to now is      897.8 secs

     total energy              =  -29385.61534714 Ry
     estimated scf accuracy    <       3.29549770 Ry

     iteration #  4     ecut=    40.00 Ry     beta= 0.70
     Davidson diagonalization with overlap
     ethr =  1.04E-04,  avg # of iterations = 15.3

     negative rho (up, down):  8.096E+00 0.000E+00

     total cpu time spent up to now is     1176.6 secs

     total energy              =  -29385.56431546 Ry
     estimated scf accuracy    <       1.61433093 Ry

     iteration #  5     ecut=    40.00 Ry     beta= 0.70
     Davidson diagonalization with overlap
     c_bands:  3 eigenvalues not converged
     c_bands:  5 eigenvalues not converged
     c_bands:  4 eigenvalues not converged
     ethr =  5.10E-05,  avg # of iterations = 16.8

     negative rho (up, down):  7.901E+00 0.000E+00

     total cpu time spent up to now is     1434.5 secs

     total energy              =  -29385.53893773 Ry
     estimated scf accuracy    <       0.99149768 Ry

     iteration #  6     ecut=    40.00 Ry     beta= 0.70
     Davidson diagonalization with overlap
     ethr =  3.13E-05,  avg # of iterations = 10.3

     negative rho (up, down):  7.912E+00 0.000E+00

     total cpu time spent up to now is     1659.1 secs

     total energy              =  -29385.51786340 Ry
     estimated scf accuracy    <       0.95460342 Ry

     iteration #  7     ecut=    40.00 Ry     beta= 0.70
     Davidson diagonalization with overlap
     ethr =  3.01E-05,  avg # of iterations =  5.0

     negative rho (up, down):  7.877E+00 0.000E+00

     total cpu time spent up to now is     1869.7 secs

     total energy              =  -29385.55309004 Ry
     estimated scf accuracy    <       0.98684242 Ry

     iteration #  8     ecut=    40.00 Ry     beta= 0.70
     Davidson diagonalization with overlap
     ethr =  3.01E-05,  avg # of iterations =  1.2

     negative rho (up, down):  7.857E+00 0.000E+00

     total cpu time spent up to now is     2038.7 secs

     total energy              =  -29385.62369631 Ry
     estimated scf accuracy    <       0.94711330 Ry

     iteration #  9     ecut=    40.00 Ry     beta= 0.70
     Davidson diagonalization with overlap
     ethr =  2.99E-05,  avg # of iterations =  4.2

     negative rho (up, down):  8.085E+00 0.000E+00

     total cpu time spent up to now is     2239.6 secs

     total energy              =  -29385.30118441 Ry
     estimated scf accuracy    <       1.95681663 Ry

     iteration # 10     ecut=    40.00 Ry     beta= 0.70
     Davidson diagonalization with overlap
     c_bands:  1 eigenvalues not converged
     c_bands:  2 eigenvalues not converged
     ethr =  2.99E-05,  avg # of iterations = 18.0

     negative rho (up, down):  8.303E+00 0.000E+00

     total cpu time spent up to now is     2629.2 secs

     total energy              =  -29385.96679260 Ry
     estimated scf accuracy    <       6.34129738 Ry

     iteration # 11     ecut=    40.00 Ry     beta= 0.70
     Davidson diagonalization with overlap
     ethr =  2.99E-05,  avg # of iterations =  2.7

     negative rho (up, down):  8.329E+00 0.000E+00

     total cpu time spent up to now is     2816.5 secs

     total energy              =  -29386.05198078 Ry
     estimated scf accuracy    <       7.93046000 Ry

     iteration # 12     ecut=    40.00 Ry     beta= 0.70
     Davidson diagonalization with overlap
     ethr =  2.99E-05,  avg # of iterations =  1.0

     negative rho (up, down):  8.358E+00 0.000E+00

     total cpu time spent up to now is     2993.6 secs

     total energy              =  -29386.01662535 Ry
     estimated scf accuracy    <       9.02725514 Ry

     iteration # 13     ecut=    40.00 Ry     beta= 0.70
     Davidson diagonalization with overlap
     ethr =  2.99E-05,  avg # of iterations =  1.2

     negative rho (up, down):  8.406E+00 0.000E+00

     total cpu time spent up to now is     3161.7 secs

     total energy              =  -29385.61230855 Ry
     estimated scf accuracy    <       8.88664373 Ry

     iteration # 14     ecut=    40.00 Ry     beta= 0.70
     Davidson diagonalization with overlap
     ethr =  2.99E-05,  avg # of iterations =  3.8

     negative rho (up, down):  8.307E+00 0.000E+00

     total cpu time spent up to now is     3356.5 secs

     total energy              =  -29385.58332962 Ry
     estimated scf accuracy    <       3.52631991 Ry

     iteration # 15     ecut=    40.00 Ry     beta= 0.70
     Davidson diagonalization with overlap
     ethr =  2.99E-05,  avg # of iterations =  2.5

     negative rho (up, down):  8.215E+00 0.000E+00

     total cpu time spent up to now is     3537.3 secs

     total energy              =  -29385.26903331 Ry
     estimated scf accuracy    <       2.32888347 Ry

     iteration # 16     ecut=    40.00 Ry     beta= 0.70
     Davidson diagonalization with overlap
     c_bands:  5 eigenvalues not converged
     ethr =  2.99E-05,  avg # of iterations = 14.5

     negative rho (up, down):  8.055E+00 0.000E+00

     total cpu time spent up to now is     3821.9 secs

     total energy              =  -29385.42702581 Ry
     estimated scf accuracy    <       0.04689491 Ry

     iteration # 17     ecut=    40.00 Ry     beta= 0.70
     Davidson diagonalization with overlap
     ethr =  1.48E-06,  avg # of iterations = 15.8

     negative rho (up, down):  8.055E+00 0.000E+00

     total cpu time spent up to now is     4323.3 secs

     total energy              =  -29385.42098446 Ry
     estimated scf accuracy    <       0.08008389 Ry

     iteration # 18     ecut=    40.00 Ry     beta= 0.70
     Davidson diagonalization with overlap
     ethr =  1.48E-06,  avg # of iterations =  8.8

     negative rho (up, down):  8.001E+00 0.000E+00

     total cpu time spent up to now is     4546.9 secs

     total energy              =  -29385.42702158 Ry
     estimated scf accuracy    <       0.01357180 Ry

     iteration # 19     ecut=    40.00 Ry     beta= 0.70
     Davidson diagonalization with overlap
     ethr =  4.28E-07,  avg # of iterations =  7.0

     negative rho (up, down):  7.923E+00 0.000E+00

     total cpu time spent up to now is     4771.1 secs

     total energy              =  -29385.42687031 Ry
     estimated scf accuracy    <       0.00463940 Ry

     iteration # 20     ecut=    40.00 Ry     beta= 0.70
     Davidson diagonalization with overlap
     ethr =  1.46E-07,  avg # of iterations = 12.0

     negative rho (up, down):  7.854E+00 0.000E+00

     total cpu time spent up to now is     5006.6 secs

     total energy              =  -29385.42629838 Ry
     estimated scf accuracy    <       0.00096766 Ry

     iteration # 21     ecut=    40.00 Ry     beta= 0.70
     Davidson diagonalization with overlap
     ethr =  3.05E-08,  avg # of iterations = 13.5

     negative rho (up, down):  7.840E+00 0.000E+00

     total cpu time spent up to now is     5286.9 secs

     total energy              =  -29385.42649432 Ry
     estimated scf accuracy    <       0.00023128 Ry

     iteration # 22     ecut=    40.00 Ry     beta= 0.70
     Davidson diagonalization with overlap
     ethr =  7.30E-09,  avg # of iterations =  6.3

     negative rho (up, down):  7.836E+00 0.000E+00

     total cpu time spent up to now is     5508.7 secs

     total energy              =  -29385.42669986 Ry
     estimated scf accuracy    <       0.00009245 Ry

     iteration # 23     ecut=    40.00 Ry     beta= 0.70
     Davidson diagonalization with overlap
     ethr =  2.92E-09,  avg # of iterations =  8.0

     negative rho (up, down):  7.836E+00 0.000E+00

     total cpu time spent up to now is     5760.7 secs

     total energy              =  -29385.42677895 Ry
     estimated scf accuracy    <       0.00001424 Ry

     iteration # 24     ecut=    40.00 Ry     beta= 0.70
     Davidson diagonalization with overlap
     ethr =  4.49E-10,  avg # of iterations =  4.8

     negative rho (up, down):  7.835E+00 0.000E+00

     total cpu time spent up to now is     5987.8 secs

     total energy              =  -29385.42679142 Ry
     estimated scf accuracy    <       0.00000342 Ry

     iteration # 25     ecut=    40.00 Ry     beta= 0.70
     Davidson diagonalization with overlap
     ethr =  1.08E-10,  avg # of iterations =  4.0

     negative rho (up, down):  7.835E+00 0.000E+00

     total cpu time spent up to now is     6192.9 secs

     End of self-consistent calculation

          k = 0.0833 0.0962 0.0000 (220303 PWs)   bands (ev):

    -0.8132  -0.5142  -0.4716  -0.2265  -0.1782   0.0251   0.1017   0.2534
     0.3113   0.4897   0.5489   0.5637   0.5798   0.6011   0.6348   0.7192
     0.7830   0.8242   0.8359   0.8818   0.9220   0.9647   0.9948   1.0076
     1.0164   1.0906   1.1248   1.1385   1.2047   1.2156   1.2460   1.2566
     1.3383   1.3565   1.3850   1.4015   1.4431   1.4634   1.5055   1.5096
     1.5523   1.5570   1.5646   1.5680   1.5729   1.5831   1.5908   1.6033
     1.6140   1.6192   1.6429   1.6935   1.7088   1.7225   1.7257   1.7267
     1.7513   1.7544   1.7931   1.8036   1.8164   1.8287   1.8297   1.8324
     1.8473   1.8503   1.8518   1.8543   1.8553   1.8567   1.8638   1.8679
     1.8809   1.8946   1.9100   1.9215   1.9390   1.9451   1.9473   1.9646
     1.9728   1.9987   1.9995   2.0092   2.0101   2.0130   2.0282   2.0299
     2.0333   2.0403   2.0424   2.0557   2.0654   2.0739   2.0842   2.0880
     2.1217   2.1224   2.1251   2.1268   2.1288   2.1438   2.1464   2.1513
     2.1517   2.1574   2.1613   2.1632   2.1661   2.1685   2.1711   2.1761
     2.1959   2.2122   2.2254   2.2289   2.2299   2.2337   2.2339   2.2379
     2.2414   2.2438   2.2474   2.2731   2.2772   2.2804   2.2883   2.2903
     2.3016   2.3024   2.3042   2.3077   2.3083   2.3097   2.3144   2.3177
     2.3226   2.3251   2.3291   2.3334   2.3379   2.3402   2.3435   2.3446
     2.3491   2.3500   2.3577   2.3698   2.3762   2.3805   2.3808   2.3822
     2.3830   2.3913   2.3988   2.4060   2.4077   2.4112   2.4115   2.4119
     2.4163   2.4228   2.4260   2.4261   2.4279   2.4298   2.4362   2.4392
     2.4404   2.4491   2.4498   2.4512   2.4519   2.4559   2.4600   2.4683
     2.4741   2.4755   2.4763   2.4833   2.4835   2.4854   2.4883   2.4949
     2.5105   2.5132   2.5148   2.5242   2.5354   2.5373   2.5376   2.5427
     2.5459   2.5531   2.5553   2.5576   2.5644   2.5677   2.5684   2.5739
     2.5754   2.5797   2.5798   2.5809   2.5877   2.5901   2.5930   2.5941
     2.5978   2.5982   2.5983   2.6019   2.6136   2.6140   2.6166   2.6204
     2.6230   2.6348   2.6412   2.6537   2.6546   2.6587   2.6611   2.6634
     2.6669   2.6684   2.6697   2.6728   2.6802   2.6843   2.6929   2.6939
     2.6977   2.7009   2.7146   2.7163   2.7194   2.7196   2.7234   2.7264
     2.7337   2.7427   2.7447   2.7473   2.7587   2.7598   2.7686   2.7714
     2.7722   2.7753   2.7778   2.7806   2.7851   2.7903   2.7934   2.8058
     2.8063   2.8064   2.8068   2.8121   2.8122   2.8144   2.8190   2.8244
     2.8341   2.8368   2.8487   2.8505   2.8551   2.8551   2.8570   2.8592
     2.8597   2.8606   2.8751   2.8755   2.8983   2.9114   2.9193   2.9205
     2.9225   2.9291   2.9323   2.9370   2.9400   2.9476   2.9500   2.9561
     2.9565   2.9609   2.9791   2.9838   2.9971   3.0083   3.0109   3.0217
     3.0234   3.0436   3.0558   3.0562   3.0590   3.0672   3.0688   3.0691
     3.0723   3.0801   3.0811   3.0824   3.0831   3.0848   3.0930   3.1106
     3.1157   3.1168   3.1197   3.1218   3.1304   3.1328   3.1376   3.1397
     3.1425   3.1427   3.1476   3.1627   3.1671   3.1692   3.1758   3.1799
     3.1808   3.1906   3.1943   3.1962   3.1985   3.1989   3.2018   3.2085
     3.2086   3.2120   3.2136   3.2229   3.2246   3.2279   3.2315   3.2333
     3.2369   3.2449   3.2611   3.2626   3.2670   3.2740   3.2790   3.2814
     3.2839   3.2907   3.2923   3.2931   3.2999   3.3124   3.3163   3.3215
     3.3242   3.3242   3.3250   3.3259   3.3274   3.3288   3.3316   3.3331
     3.3363   3.3436   3.3472   3.3503   3.3536   3.3549   3.3603   3.3604
     3.3692   3.3729   3.3729   3.3755   3.3755   3.3775   3.3789   3.3814
     3.4046   3.4058   3.4063   3.4093   3.4135   3.4163   3.4210   3.4216
     3.4274   3.4344   3.4385   3.4386   3.4420   3.4474   3.4481   3.4492
     3.4590   3.4628   3.4630   3.4640   3.4729   3.4745   3.4754   3.4756
     3.4786   3.4821   3.4857   3.4868   3.4959   3.4971   3.5019   3.5059
     3.5087   3.5117   3.5146   3.5148   3.5183   3.5264   3.5317   3.5330
     3.5356   3.5378   3.5386   3.5433   3.5477   3.5534   3.5576   3.5625
     3.5667   3.5686   3.5706   3.5759   3.5761   3.5798   3.5853   3.5865
     3.5905   3.5917   3.5932   3.5968   3.5979   3.6013   3.6015   3.6015
     3.6072   3.6086   3.6207   3.6208   3.6240   3.6244   3.6249   3.6257
     3.6260   3.6295   3.6322   3.6445   3.6465   3.6477   3.6478   3.6591
     3.6617   3.6788   3.6843   3.6904   3.6921   3.6930   3.6958   3.6975
     3.7041   3.7088   3.7112   3.7148   3.7186   3.7198   3.7206   3.7301
     3.7317   3.7324   3.7340   3.7346   3.7434   3.7455   3.7491   3.7500
     3.7590   3.7591   3.7616   3.7653   3.7711   3.7728   3.7740   3.7757
     3.7766   3.7786   3.7849   3.7860   3.7873   3.7901   3.7917   3.7937
     3.8011   3.8047   3.8104   3.8136   3.8186   3.8249   3.8263   3.8278
     3.8355   3.8431   3.8463   3.8490   3.8521   3.8552   3.8553   3.8568
     3.8646   3.8674   3.8679   3.8694   3.8694   3.8732   3.8735   3.8747
     3.8762   3.8932   3.8950   3.9000   3.9017   3.9040   3.9069   3.9162
     3.9190   3.9193   3.9203   3.9222   3.9231   3.9242   3.9257   3.9304
     3.9324   3.9339   3.9342   3.9386   3.9406   3.9484   3.9492   3.9526
     3.9547   3.9550   3.9607   3.9633   3.9644   3.9673   3.9707   3.9754
     3.9781   3.9796   3.9799   3.9832   3.9862   3.9874   3.9913   3.9920
     3.9937   4.0054   4.0054   4.0115   4.0122   4.0151   4.0160   4.0190
     4.0214   4.0258   4.0262   4.0280   4.0388   4.0389   4.0415   4.0422
     4.0518   4.0530   4.0576   4.0642   4.0679   4.0682   4.0693   4.0706
     4.0728   4.0730   4.0761   4.0786   4.0798   4.0854   4.0864   4.0909
     4.0950   4.0965   4.0976   4.0982   4.0989   4.1019   4.1046   4.1076
     4.1094   4.1098   4.1138   4.1138   4.1174   4.1194   4.1199   4.1293
     4.1294   4.1314   4.1334   4.1348   4.1390   4.1396   4.1408   4.1418
     4.1421   4.1496   4.1545   4.1566   4.1584   4.1621   4.1621   4.1636
     4.1642   4.1646   4.1651   4.1654   4.1661   4.1671   4.1691   4.1707
     4.1740   4.1751   4.1751   4.1780   4.1783   4.1809   4.1828   4.1828
     4.1867   4.1886   4.1902   4.1903   4.1932   4.1938   4.1968   4.1984
     4.1992   4.1995   4.2000   4.2005   4.2018   4.2036   4.2047   4.2055
     4.2063   4.2098   4.2138   4.2148   4.2179   4.2182   4.2183   4.2268
     4.2306   4.2314   4.2315   4.2355   4.2365   4.2370   4.2375   4.2385
     4.2439   4.2499   4.2540   4.2546   4.2556   4.2562   4.2576   4.2609
     4.2650   4.2675   4.2697   4.2736   4.2742   4.2776   4.2781   4.2823
     4.2883   4.2938   4.2957   4.2964   4.2999   4.3001   4.3054   4.3058
     4.3142   4.3144   4.3149   4.3181   4.3215   4.3221   4.3221   4.3277
     4.3326   4.3381   4.3391   4.3443   4.3477   4.3502   4.3533   4.3557
     4.3564   4.3575   4.3591   4.3622   4.3669   4.3685   4.3688   4.3692
     4.3701   4.3706   4.3716   4.3786   4.3804   4.3813   4.3824   4.3835
     4.3891   4.3925   4.3934   4.3941   4.3992   4.3993   4.4010   4.4062
     4.4251   4.4262   4.4263   4.4292   4.4294   4.4311   4.4331   4.4341
     4.4417   4.4510   4.4511   4.4522   4.4622   4.4627   4.4657   4.4664
     4.4683   4.4709   4.4778   4.4839   4.4851   4.4903   4.4907   4.4913
     4.4931   4.4952   4.4988   4.5047   4.5080   4.5094   4.5124   4.5185
     4.5194   4.5220   4.5246   4.5278   4.5332   4.5339   4.5352   4.5357
     4.5359   4.5379   4.5403   4.5480   4.5496   4.5556   4.5657   4.5684
     4.5741   4.5766   4.5784   4.5787   4.5860   4.5905   4.5970   4.6058
     4.6075   4.6216   4.6322   4.6322   4.6359   4.6394   4.6447   4.6472
     4.6518   4.6588   4.6617   4.6628   4.6665   4.6800   4.6841   4.6856
     4.6870   4.6914   4.6914   4.6923   4.6971   4.6988   4.6988   4.7034
     4.7082   4.7141   4.7180   4.7186   4.7208   4.7249   4.7253   4.7304
     4.7371   4.7443   4.7453   4.7464   4.7486   4.7511   4.7603   4.7642
     4.7646   4.7725   4.7786   4.7850   4.7971   4.8011   4.8055   4.8100
     4.8110   4.8134   4.8147   4.8174   4.8231   4.8238   4.8252   4.8258
     4.8272   4.8278   4.8286   4.8297   4.8400   4.8419   4.8493   4.8505
     4.8583   4.8592   4.8714   4.8717   4.8719   4.8735   4.8783   4.8796
     4.8807   4.8817   4.8856   4.8880   4.8916   4.8942   4.8958   4.8987
     4.9008   4.9025   4.9063   4.9091   4.9097   4.9103   4.9181   4.9249
     4.9271   4.9295   4.9350   4.9409   4.9460   4.9531   4.9561   4.9582
     4.9594   4.9616   4.9644   4.9708   4.9721   4.9727   4.9748   4.9807
     4.9809   4.9816   4.9833   4.9910   4.9911   4.9927   4.9985   4.9987
     5.0019   5.0062   5.0114   5.0143   5.0163   5.0189   5.0225   5.0245
     5.0290   5.0296   5.0303   5.0338   5.0339   5.0350   5.0370   5.0373
     5.0420   5.0462   5.0562   5.0583   5.0602   5.0604   5.0628   5.0693
     5.0730   5.0780   5.0818   5.0842   5.0862   5.0878   5.0944   5.1084
     5.1091   5.1112   5.1209   5.1221   5.1240   5.1278   5.1290   5.1332
     5.1349   5.1350   5.1381   5.1415   5.1483   5.1510   5.1511   5.1516
     5.1537   5.1550   5.1601   5.1608   5.1615   5.1729   5.1800   5.1814
     5.1850   5.1898   5.1904   5.1905   5.1926   5.1996   5.2008   5.2010
     5.2040   5.2068   5.2156   5.2157   5.2218   5.2233   5.2242   5.2246
     5.2282   5.2290   5.2308   5.2313   5.2313   5.2317   5.2360   5.2379
     5.2383   5.2387   5.2389   5.2407   5.2422   5.2459   5.2493   5.2501
     5.2582   5.2588   5.2603   5.2611   5.2618   5.2642   5.2647   5.2659
     5.2685   5.2700   5.2738   5.2751   5.2765   5.2826   5.2831   5.2851
     5.2855   5.2870   5.2884   5.2959   5.2968   5.2991   5.3117   5.3160
     5.3186   5.3196   5.3216   5.3263   5.3267   5.3270   5.3308   5.3318
     5.3340   5.3368   5.3399   5.3441   5.3443   5.3469   5.3508   5.3518
     5.3535   5.3541   5.3553   5.3640   5.3669   5.3727   5.3749   5.3758
     5.3759   5.3764   5.3786   5.3808   5.3874   5.3895   5.3948   5.3949
     5.3985   5.4026   5.4031   5.4062   5.4062   5.4089   5.4127   5.4137
     5.4164   5.4188   5.4195   5.4237   5.4277   5.4312   5.4315   5.4339
     5.4458   5.4505   5.4523   5.4531   5.4560   5.4574   5.4590   5.4605
     5.4726   5.4740   5.4742   5.4781   5.4789   5.4865   5.4884   5.4892
     5.4947   5.4958   5.5085   5.5106   5.5160   5.5161   5.5182   5.5319
     5.5330   5.5347   5.5357   5.5368   5.5396   5.5422   5.5426   5.5451
     5.5466   5.5469   5.5507   5.5546   5.5551   5.5555   5.5640   5.5676
     5.5722   5.5765   5.5765   5.5768   5.5774   5.5818   5.5935   5.5988
     5.6000   5.6043   5.6059   5.6072   5.6106   5.6199   5.6216   5.6222
     5.6272   5.6317   5.6403   5.6410   5.6450   5.6450   5.6469   5.6476
     5.6568   5.6580   5.6590   5.6603   5.6677   5.6743   5.6747   5.6759
     5.6782   5.6784   5.6855   5.6964   5.6968   5.6969   5.6995   5.6996
     5.7076   5.7090   5.7103   5.7120   5.7246   5.7286   5.7295   5.7299
     5.7304   5.7308   5.7330   5.7427   5.7471   5.7478   5.7481   5.7491
     5.7563   5.7606   5.7619   5.7624   5.7664   5.7689   5.7694   5.7720
     5.7762   5.7776   5.7904   5.7978   5.7998   5.8048   5.8068   5.8076
     5.8102   5.8113   5.8211   5.8239   5.8285   5.8303   5.8326   5.8337
     5.8370   5.8435   5.8483   5.8535   5.8538   5.8545   5.8567   5.8571
     5.8579   5.8596   5.8597   5.8649   5.8651   5.8666   5.8761   5.8822
     5.8887   5.8926   5.8961   5.8971   5.9003   5.9019   5.9031   5.9057
     5.9104   5.9105   5.9164   5.9250   5.9394   5.9403   5.9425   5.9463
     5.9468   5.9486   5.9492   5.9572   5.9578   5.9585   5.9589   5.9596
     5.9630   5.9684   5.9685   5.9767   5.9771   5.9777   5.9805   5.9823
     5.9905   5.9951   5.9952   5.9961   5.9986   6.0092   6.0109   6.0128
     6.0128   6.0138   6.0275   6.0280   6.0357   6.0437   6.0474   6.0513
     6.0526   6.0527   6.0534   6.0561   6.0570   6.0657   6.0666   6.0702
     6.0715   6.0723   6.0728   6.0731   6.0732   6.0738   6.0763   6.0771
     6.0856   6.0887   6.0904   6.0908   6.0944   6.0970   6.0974   6.1007
     6.1007   6.1070   6.1074   6.1081   6.1083   6.1168   6.1178   6.1220
     6.1228   6.1242   6.1290   6.1298   6.1335   6.1391   6.1400   6.1423
     6.1425   6.1447   6.1501   6.1517   6.1526   6.1543   6.1573   6.1620
     6.1651   6.1655   6.1674   6.1682   6.1695   6.1749   6.1759   6.1780
     6.1791   6.1816   6.1839   6.1857   6.1926   6.1957   6.1958   6.1993
     6.2010   6.2054   6.2065   6.2090   6.2135   6.2135   6.2140   6.2186
     6.2196   6.2206   6.2209   6.2255   6.2257   6.2311   6.2330   6.2336
     6.2343   6.2346   6.2351   6.2387   6.2464   6.2482   6.2526   6.2575
     6.2594   6.2595   6.2633   6.2645   6.2654   6.2667   6.2670   6.2728
     6.2739   6.2764   6.2788   6.2824   6.2824   6.2835   6.2909   6.2928
     6.2936   6.2942   6.2973   6.3034   6.3068   6.3136   6.3169   6.3189
     6.3225   6.3275   6.3282   6.3306   6.3335   6.3358   6.3360   6.3371
     6.3450   6.3456   6.3457   6.3457   6.3470   6.3473   6.3493   6.3585
     6.3605   6.3618   6.3645   6.3647   6.3698   6.3713   6.3741   6.3748
     6.3758   6.3760   6.3770   6.3774   6.3774   6.3785   6.3793   6.3830
     6.3847   6.3862   6.3876   6.3901   6.3919   6.3922   6.3939   6.3954
     6.3959   6.3977   6.3986   6.4041   6.4053   6.4088   6.4089   6.4161
     6.4182   6.4240   6.4248   6.4282   6.4314   6.4321   6.4343   6.4343
     6.4382   6.4421   6.4451   6.4481   6.4494   6.4513   6.4524   6.4559
     6.4630   6.4648   6.4674   6.4696   6.4739   6.4777   6.4777   6.4781
     6.4861   6.4865   6.5012   6.5114   6.5122   6.5158   6.5171   6.5191
     6.5287   6.5341   6.5361   6.5456   6.5462   6.5464   6.5469   6.5478
     6.5480   6.5482   6.5504   6.5604   6.5642   6.5649   6.5710   6.5750
     6.5806   6.5843   6.5847   6.5854   6.5872   6.5878   6.5895   6.5915
     6.5920   6.5936   6.5956   6.5988   6.5988   6.5994   6.6008   6.6017
     6.6040   6.6045   6.6055   6.6082   6.6330   6.6343   6.6367   6.6369
     6.6379   6.6522   6.6623   6.6685   6.6701   6.6814   6.6914   6.6965
     6.6967   6.6971   6.7167   6.7168   6.7190   6.7246   6.7247   6.7282
     6.7394   6.7460   6.7563   6.7603   6.7852   6.7990   6.8156   6.8255
     6.8272   6.8335   6.8527   6.8680   6.8760   6.8950   6.8961   6.8971
     6.9053   6.9061   6.9114   6.9122   6.9127   6.9337   6.9555   6.9976
     7.0623   7.0627   7.0663   7.0796   7.1342   7.1466   7.2573   7.2652
     7.3377   7.3794   7.4068   7.4964   7.5251   7.5263   7.5289   7.5829
     7.6140   7.6217   7.6390   7.6695   7.6858   7.6909   7.7169   7.7392
     7.7966   7.7985   7.7999   7.8058   7.8151   7.8490   7.8506   7.8518
     7.8659   7.8699   7.8917   8.0008   8.0286   8.0372   8.0473   8.0542
     8.0605   8.0660   8.0792   8.1130   8.1459   8.1922   8.1970   8.2133
     8.2406   8.2645   8.2767   8.2976   8.3291   8.3491   8.3592   8.3611
     8.4058   8.4060   8.4150   8.4196   8.4211   8.4237   8.4530   8.4650
     8.5147   8.5160   8.5504   8.5852   8.5957   8.6483   8.6484   8.6697
     8.6833   8.7134   8.7452   8.7750   8.7829   8.7878   8.7917   8.8057
     8.8536   8.9182   8.9268   8.9278   8.9465   8.9505   8.9661   8.9781
     9.0088   9.0216   9.0400   9.0557   9.0633   9.1039   9.1282   9.1461
     9.1962   9.2259   9.2309   9.2501   9.2561   9.2724   9.2774   9.2888
     9.2966   9.2982   9.3117   9.3143   9.3528   9.3894   9.4607   9.4960
     9.5699   9.5759   9.5882   9.6437   9.6608   9.6857   9.6970   9.7010
     9.7171   9.7300   9.7555   9.7596   9.7801   9.7874   9.8237   9.8304
     9.8602   9.8684   9.8715   9.8786   9.9038   9.9105   9.9357   9.9773
     9.9940   9.9976  10.0037  10.0740  10.0742  10.0898  10.1997  10.2067
    10.2240  10.2497  10.2526  10.2641  10.2979  10.3140  10.3639  10.3934
    10.4596  10.4658  10.5291  10.5443  10.5518  10.5642  10.5916  10.6432
    10.6508  10.6739  10.6806  10.7056  10.7281  10.7561  10.7869  10.7893
    10.8566  10.8653  10.8914  10.9346  10.9386  10.9818  10.9851  11.0328
    11.0495  11.0634  11.0763  11.0858  11.1306  11.1346  11.1446  11.1942
    11.2179  11.2265  11.2290  11.2355  11.2422  11.2589  11.2641  11.2739
    11.2820  11.2962  11.3278  11.3373  11.3416  11.3821  11.3894  11.4434
    11.4508  11.4665  11.4821  11.5484  11.5718  11.6059  11.6594  11.6618
    11.6652  11.7215  11.7280  11.7562  11.7788  11.8059  11.8210  11.8306
    11.8563  11.8823  11.8982  11.9040  11.9310  11.9528  11.9855  12.0005
    12.0114  12.0477  12.0587  12.0630  12.0965  12.1031  12.1124  12.1259
    12.2159  12.2252  12.2554  12.2784  12.3033  12.3149  12.3197  12.3378
    12.3469  12.3559  12.3719  12.3800  12.4094  12.4486  12.4555  12.5243
    12.5404  12.5508  12.5921  12.6016  12.6089  12.6158  12.6196  12.6218
    12.6448  12.6531  12.7044  12.7297  12.7411  12.7433  12.7648  12.7787
    12.7918  12.8220  12.8464  12.8494  12.8732  12.8746  12.8881  12.8933
    12.9047  12.9364  13.0223  13.0224  13.0521  13.0729  13.0810  13.0934
    13.0958  13.1003  13.1577  13.1676  13.1794  13.2055  13.2150  13.2278
    13.2444  13.2492  13.2598  13.2837  13.2839  13.2951  13.3193  13.3232
    13.3385  13.3789  13.3833  13.4403  13.4461  13.4627  13.4629  13.4637
    13.4684  13.4688  13.4716  13.4914  13.5041  13.5232  13.5274  13.5776
    13.6554  13.6620  13.6759  13.6823  13.6881  13.7251  13.7600  13.7657
    13.8099  13.8192  13.8223  13.8262  13.8356  13.8431  13.8827  13.8863
    13.8903  13.8959  13.9142  13.9332  13.9334  13.9390  13.9523  13.9578
    13.9608  13.9949  13.9979  14.0028  14.0076  14.0287  14.0492  14.0696
    14.0901  14.1009  14.1115  14.1282  14.1447  14.1641  14.1704  14.1714
    14.2006  14.2045  14.2309  14.2432  14.2716  14.2786  14.2821  14.3245
    14.3392  14.3731  14.3734  14.4021  14.4034  14.4101  14.4226  14.4230
    14.4285  14.5060  14.5555  14.5570  14.6010

          k = 0.0833-0.2887 0.0000 (220268 PWs)   bands (ev):

    -0.7124  -0.7124  -0.3724  -0.3724   0.1223   0.1223   0.1364   0.1364
     0.3329   0.3329   0.4497   0.4497   0.6375   0.6375   0.6970   0.6970
     0.6985   0.6985   0.9042   0.9042   0.9784   0.9784   1.0129   1.0129
     1.0799   1.0799   1.2198   1.2198   1.2408   1.2408   1.2636   1.2636
     1.3069   1.3069   1.3796   1.3796   1.4285   1.4285   1.4716   1.4716
     1.5335   1.5335   1.5446   1.5446   1.5998   1.5998   1.6050   1.6050
     1.6096   1.6096   1.6494   1.6494   1.6501   1.6501   1.6606   1.6606
     1.6963   1.6963   1.7604   1.7604   1.7915   1.7915   1.8461   1.8461
     1.8609   1.8609   1.8862   1.8862   1.8968   1.8968   1.9031   1.9031
     1.9189   1.9189   1.9247   1.9247   1.9440   1.9440   1.9941   1.9941
     2.0361   2.0361   2.0408   2.0408   2.0570   2.0570   2.0647   2.0647
     2.0783   2.0783   2.0839   2.0839   2.0849   2.0849   2.0989   2.0989
     2.1135   2.1135   2.1516   2.1516   2.1676   2.1676   2.1706   2.1706
     2.1734   2.1734   2.1751   2.1751   2.1756   2.1756   2.1993   2.1993
     2.2054   2.2054   2.2130   2.2130   2.2501   2.2501   2.2533   2.2533
     2.2535   2.2535   2.2569   2.2569   2.2712   2.2712   2.2718   2.2718
     2.2766   2.2766   2.2859   2.2859   2.2873   2.2873   2.2880   2.2880
     2.2971   2.2971   2.3058   2.3058   2.3119   2.3119   2.3233   2.3233
     2.3268   2.3268   2.3381   2.3381   2.3587   2.3587   2.3590   2.3590
     2.3608   2.3608   2.3622   2.3622   2.3680   2.3680   2.4023   2.4023
     2.4141   2.4141   2.4224   2.4224   2.4249   2.4249   2.4332   2.4332
     2.4500   2.4500   2.4610   2.4610   2.4682   2.4682   2.4711   2.4711
     2.4803   2.4803   2.4857   2.4857   2.4943   2.4943   2.4992   2.4992
     2.4994   2.4994   2.5017   2.5017   2.5084   2.5084   2.5177   2.5177
     2.5191   2.5191   2.5436   2.5436   2.5451   2.5451   2.5544   2.5544
     2.5678   2.5678   2.5729   2.5729   2.5875   2.5875   2.5945   2.5945
     2.5970   2.5970   2.6216   2.6216   2.6426   2.6426   2.6485   2.6485
     2.6590   2.6590   2.6743   2.6743   2.6768   2.6768   2.6807   2.6807
     2.6922   2.6922   2.6941   2.6941   2.6950   2.6950   2.7015   2.7015
     2.7018   2.7018   2.7046   2.7046   2.7110   2.7110   2.7223   2.7223
     2.7228   2.7228   2.7429   2.7429   2.7595   2.7595   2.7744   2.7744
     2.7758   2.7758   2.7798   2.7798   2.7970   2.7970   2.8032   2.8032
     2.8070   2.8070   2.8111   2.8111   2.8192   2.8192   2.8322   2.8322
     2.8374   2.8374   2.8534   2.8534   2.8592   2.8592   2.8693   2.8693
     2.8701   2.8701   2.8870   2.8870   2.8921   2.8921   2.9243   2.9243
     2.9296   2.9296   2.9319   2.9319   2.9379   2.9379   2.9459   2.9459
     2.9786   2.9786   2.9957   2.9957   3.0048   3.0048   3.0101   3.0101
     3.0139   3.0139   3.0352   3.0352   3.0407   3.0407   3.0688   3.0688
     3.0793   3.0793   3.0819   3.0819   3.0823   3.0823   3.0840   3.0840
     3.0885   3.0885   3.1040   3.1040   3.1254   3.1254   3.1299   3.1299
     3.1365   3.1365   3.1413   3.1413   3.1599   3.1599   3.1623   3.1623
     3.1779   3.1779   3.1821   3.1821   3.2002   3.2002   3.2242   3.2242
     3.2316   3.2316   3.2373   3.2373   3.2390   3.2390   3.2418   3.2418
     3.2484   3.2484   3.2672   3.2672   3.2679   3.2679   3.2736   3.2736
     3.2737   3.2737   3.2742   3.2742   3.2912   3.2912   3.3068   3.3068
     3.3112   3.3112   3.3140   3.3140   3.3278   3.3278   3.3340   3.3340
     3.3388   3.3388   3.3398   3.3398   3.3496   3.3496   3.3536   3.3536
     3.3599   3.3599   3.3670   3.3670   3.3740   3.3740   3.3836   3.3836
     3.3842   3.3842   3.4093   3.4093   3.4116   3.4116   3.4214   3.4214
     3.4234   3.4234   3.4345   3.4345   3.4392   3.4392   3.4516   3.4516
     3.4604   3.4604   3.4613   3.4613   3.4695   3.4695   3.4760   3.4760
     3.4789   3.4789   3.4834   3.4834   3.4955   3.4955   3.5015   3.5015
     3.5084   3.5084   3.5153   3.5153   3.5238   3.5238   3.5312   3.5312
     3.5332   3.5332   3.5470   3.5470   3.5490   3.5490   3.5508   3.5508
     3.5553   3.5553   3.5557   3.5557   3.5681   3.5681   3.5839   3.5839
     3.5874   3.5874   3.5883   3.5883   3.6148   3.6148   3.6156   3.6156
     3.6196   3.6196   3.6217   3.6217   3.6226   3.6226   3.6269   3.6269
     3.6409   3.6409   3.6483   3.6483   3.6607   3.6607   3.6746   3.6746
     3.6775   3.6775   3.6851   3.6851   3.6855   3.6855   3.6911   3.6911
     3.6994   3.6994   3.7017   3.7017   3.7075   3.7075   3.7077   3.7077
     3.7381   3.7381   3.7492   3.7492   3.7508   3.7508   3.7623   3.7623
     3.7646   3.7646   3.7666   3.7666   3.7704   3.7704   3.7704   3.7704
     3.7791   3.7791   3.7860   3.7860   3.7912   3.7912   3.8153   3.8153
     3.8156   3.8156   3.8359   3.8359   3.8384   3.8384   3.8462   3.8462
     3.8503   3.8503   3.8532   3.8532   3.8619   3.8619   3.8644   3.8644
     3.8698   3.8698   3.8759   3.8759   3.8919   3.8919   3.8970   3.8970
     3.9034   3.9034   3.9092   3.9092   3.9109   3.9109   3.9122   3.9122
     3.9145   3.9145   3.9275   3.9275   3.9383   3.9383   3.9439   3.9439
     3.9440   3.9440   3.9447   3.9447   3.9449   3.9449   3.9476   3.9476
     3.9547   3.9547   3.9587   3.9587   3.9651   3.9651   3.9760   3.9760
     3.9773   3.9773   3.9818   3.9818   3.9934   3.9934   3.9944   3.9944
     3.9985   3.9985   4.0003   4.0003   4.0078   4.0078   4.0216   4.0216
     4.0216   4.0216   4.0244   4.0244   4.0248   4.0248   4.0262   4.0262
     4.0544   4.0544   4.0557   4.0557   4.0626   4.0626   4.0666   4.0666
     4.0719   4.0719   4.0724   4.0724   4.0732   4.0732   4.0742   4.0742
     4.0816   4.0816   4.0846   4.0846   4.1080   4.1080   4.1110   4.1110
     4.1154   4.1154   4.1154   4.1154   4.1219   4.1219   4.1348   4.1348
     4.1394   4.1394   4.1398   4.1398   4.1451   4.1451   4.1459   4.1459
     4.1459   4.1459   4.1475   4.1475   4.1513   4.1513   4.1604   4.1604
     4.1684   4.1684   4.1735   4.1735   4.1758   4.1758   4.1775   4.1775
     4.1809   4.1809   4.1850   4.1850   4.1870   4.1870   4.1910   4.1910
     4.1942   4.1942   4.1970   4.1970   4.1978   4.1978   4.2028   4.2028
     4.2059   4.2059   4.2127   4.2127   4.2161   4.2161   4.2184   4.2184
     4.2216   4.2216   4.2225   4.2225   4.2234   4.2234   4.2257   4.2257
     4.2258   4.2258   4.2286   4.2286   4.2315   4.2315   4.2323   4.2323
     4.2454   4.2454   4.2460   4.2460   4.2666   4.2666   4.2683   4.2683
     4.2712   4.2712   4.2760   4.2760   4.2773   4.2773   4.2823   4.2823
     4.2877   4.2877   4.2981   4.2981   4.2983   4.2983   4.3030   4.3030
     4.3074   4.3074   4.3102   4.3102   4.3175   4.3175   4.3225   4.3225
     4.3268   4.3268   4.3301   4.3301   4.3442   4.3442   4.3487   4.3487
     4.3504   4.3504   4.3601   4.3601   4.3685   4.3685   4.3697   4.3697
     4.3780   4.3780   4.3801   4.3801   4.3802   4.3802   4.3883   4.3883
     4.3982   4.3982   4.4041   4.4041   4.4186   4.4186   4.4228   4.4228
     4.4235   4.4235   4.4317   4.4317   4.4328   4.4328   4.4534   4.4534
     4.4573   4.4573   4.4607   4.4607   4.4620   4.4620   4.4639   4.4639
     4.4656   4.4656   4.4716   4.4716   4.4878   4.4878   4.4929   4.4929
     4.4931   4.4931   4.4942   4.4942   4.5049   4.5049   4.5209   4.5209
     4.5230   4.5230   4.5331   4.5331   4.5392   4.5392   4.5485   4.5485
     4.5565   4.5565   4.5752   4.5752   4.5774   4.5774   4.5798   4.5798
     4.5834   4.5834   4.5902   4.5902   4.5981   4.5981   4.5982   4.5982
     4.6011   4.6011   4.6122   4.6122   4.6133   4.6133   4.6305   4.6305
     4.6405   4.6405   4.6532   4.6532   4.6542   4.6542   4.6597   4.6597
     4.6643   4.6643   4.6701   4.6701   4.6767   4.6767   4.6835   4.6835
     4.6889   4.6889   4.6981   4.6981   4.7059   4.7059   4.7060   4.7060
     4.7093   4.7093   4.7166   4.7166   4.7191   4.7191   4.7415   4.7415
     4.7474   4.7474   4.7586   4.7586   4.7694   4.7694   4.7754   4.7754
     4.7947   4.7947   4.8043   4.8043   4.8205   4.8205   4.8260   4.8260
     4.8293   4.8293   4.8329   4.8329   4.8447   4.8447   4.8505   4.8505
     4.8592   4.8592   4.8594   4.8594   4.8660   4.8660   4.8662   4.8662
     4.8746   4.8746   4.8754   4.8754   4.8956   4.8956   4.8992   4.8992
     4.9082   4.9082   4.9181   4.9181   4.9253   4.9253   4.9262   4.9262
     4.9273   4.9273   4.9460   4.9460   4.9464   4.9464   4.9482   4.9482
     4.9630   4.9630   4.9653   4.9653   4.9660   4.9660   4.9747   4.9747
     4.9815   4.9815   4.9846   4.9846   4.9861   4.9861   4.9890   4.9890
     4.9921   4.9921   4.9990   4.9990   5.0058   5.0058   5.0077   5.0077
     5.0117   5.0117   5.0269   5.0269   5.0289   5.0289   5.0351   5.0351
     5.0416   5.0416   5.0476   5.0476   5.0516   5.0516   5.0655   5.0655
     5.0717   5.0717   5.0837   5.0837   5.0932   5.0932   5.0981   5.0981
     5.0990   5.0990   5.1147   5.1147   5.1155   5.1155   5.1164   5.1164
     5.1293   5.1293   5.1300   5.1300   5.1352   5.1352   5.1460   5.1460
     5.1479   5.1479   5.1486   5.1486   5.1580   5.1580   5.1715   5.1715
     5.1823   5.1823   5.1939   5.1939   5.1950   5.1950   5.2013   5.2013
     5.2021   5.2021   5.2103   5.2103   5.2197   5.2197   5.2233   5.2233
     5.2262   5.2262   5.2337   5.2337   5.2382   5.2382   5.2415   5.2415
     5.2455   5.2455   5.2513   5.2513   5.2521   5.2521   5.2542   5.2542
     5.2570   5.2570   5.2607   5.2607   5.2792   5.2792   5.2832   5.2832
     5.2910   5.2910   5.3122   5.3122   5.3202   5.3202   5.3210   5.3210
     5.3241   5.3241   5.3281   5.3281   5.3301   5.3301   5.3398   5.3398
     5.3457   5.3457   5.3465   5.3465   5.3466   5.3466   5.3550   5.3550
     5.3593   5.3593   5.3612   5.3612   5.3706   5.3706   5.3779   5.3779
     5.3868   5.3868   5.3926   5.3926   5.3965   5.3965   5.4081   5.4081
     5.4096   5.4096   5.4120   5.4120   5.4189   5.4189   5.4255   5.4255
     5.4267   5.4267   5.4285   5.4285   5.4286   5.4286   5.4368   5.4368
     5.4373   5.4373   5.4488   5.4488   5.4489   5.4489   5.4538   5.4538
     5.4704   5.4704   5.4769   5.4769   5.4802   5.4802   5.4820   5.4820
     5.4938   5.4938   5.4956   5.4956   5.4975   5.4975   5.5075   5.5075
     5.5091   5.5091   5.5094   5.5094   5.5208   5.5208   5.5263   5.5263
     5.5353   5.5353   5.5376   5.5376   5.5455   5.5455   5.5498   5.5498
     5.5520   5.5520   5.5533   5.5533   5.5744   5.5744   5.5790   5.5790
     5.5811   5.5811   5.5845   5.5845   5.5883   5.5883   5.5927   5.5927
     5.5981   5.5981   5.6041   5.6041   5.6069   5.6069   5.6079   5.6079
     5.6126   5.6126   5.6216   5.6216   5.6317   5.6317   5.6323   5.6323
     5.6365   5.6365   5.6378   5.6378   5.6430   5.6430   5.6507   5.6507
     5.6648   5.6648   5.6674   5.6674   5.6708   5.6708   5.6740   5.6740
     5.6910   5.6910   5.6935   5.6935   5.6941   5.6941   5.7053   5.7053
     5.7140   5.7140   5.7213   5.7213   5.7280   5.7280   5.7291   5.7291
     5.7354   5.7354   5.7448   5.7448   5.7453   5.7453   5.7672   5.7672
     5.7680   5.7680   5.7720   5.7720   5.7734   5.7734   5.7736   5.7736
     5.7854   5.7854   5.7897   5.7897   5.7911   5.7911   5.7966   5.7966
     5.7993   5.7993   5.8189   5.8189   5.8215   5.8215   5.8342   5.8342
     5.8356   5.8356   5.8585   5.8585   5.8637   5.8637   5.8686   5.8686
     5.8715   5.8715   5.8776   5.8776   5.8973   5.8973   5.9032   5.9032
     5.9067   5.9067   5.9136   5.9136   5.9138   5.9138   5.9253   5.9253
     5.9277   5.9277   5.9429   5.9429   5.9435   5.9435   5.9462   5.9462
     5.9475   5.9475   5.9477   5.9477   5.9554   5.9554   5.9718   5.9718
     5.9747   5.9747   5.9820   5.9820   5.9821   5.9821   5.9821   5.9821
     5.9839   5.9839   6.0101   6.0101   6.0162   6.0162   6.0195   6.0195
     6.0233   6.0233   6.0244   6.0244   6.0274   6.0274   6.0294   6.0294
     6.0324   6.0324   6.0375   6.0375   6.0592   6.0592   6.0711   6.0711
     6.0918   6.0918   6.1038   6.1038   6.1080   6.1080   6.1089   6.1089
     6.1129   6.1129   6.1180   6.1180   6.1238   6.1238   6.1250   6.1250
     6.1268   6.1268   6.1344   6.1344   6.1452   6.1452   6.1463   6.1463
     6.1501   6.1501   6.1560   6.1560   6.1589   6.1589   6.1597   6.1597
     6.1620   6.1620   6.1739   6.1739   6.1763   6.1763   6.1900   6.1900
     6.1934   6.1934   6.2047   6.2047   6.2047   6.2047   6.2048   6.2048
     6.2078   6.2078   6.2109   6.2109   6.2142   6.2142   6.2159   6.2159
     6.2234   6.2234   6.2275   6.2275   6.2341   6.2341   6.2358   6.2358
     6.2500   6.2500   6.2535   6.2535   6.2561   6.2561   6.2597   6.2597
     6.2712   6.2712   6.2747   6.2747   6.2753   6.2753   6.2754   6.2754
     6.2814   6.2814   6.2828   6.2828   6.2862   6.2862   6.2935   6.2935
     6.2966   6.2966   6.2969   6.2969   6.3001   6.3001   6.3007   6.3007
     6.3140   6.3140   6.3141   6.3141   6.3192   6.3192   6.3208   6.3208
     6.3220   6.3220   6.3269   6.3269   6.3339   6.3339   6.3422   6.3422
     6.3540   6.3540   6.3568   6.3568   6.3619   6.3619   6.3645   6.3645
     6.3660   6.3660   6.3758   6.3758   6.3786   6.3786   6.3835   6.3835
     6.3888   6.3888   6.3891   6.3891   6.3904   6.3904   6.3927   6.3927
     6.3943   6.3943   6.3999   6.3999   6.3999   6.3999   6.4262   6.4262
     6.4351   6.4351   6.4467   6.4467   6.4489   6.4489   6.4533   6.4533
     6.4537   6.4537   6.4579   6.4579   6.4598   6.4598   6.4611   6.4611
     6.4638   6.4638   6.4650   6.4650   6.4806   6.4806   6.4869   6.4869
     6.4889   6.4889   6.4929   6.4929   6.4980   6.4980   6.5046   6.5046
     6.5165   6.5165   6.5399   6.5399   6.5415   6.5415   6.5429   6.5429
     6.5430   6.5430   6.5489   6.5489   6.5637   6.5637   6.5642   6.5642
     6.5674   6.5674   6.5867   6.5867   6.5883   6.5883   6.5970   6.5970
     6.5991   6.5991   6.5992   6.5992   6.6021   6.6021   6.6021   6.6021
     6.6067   6.6067   6.6188   6.6188   6.6264   6.6264   6.6269   6.6269
     6.6296   6.6296   6.6422   6.6422   6.7172   6.7172   6.7182   6.7182
     6.7251   6.7251   6.7422   6.7422   6.7444   6.7444   6.7961   6.7961
     6.8298   6.8298   6.8477   6.8477   6.8539   6.8539   6.8744   6.8744
     6.8772   6.8772   6.9105   6.9105   6.9106   6.9106   6.9657   6.9657
     6.9989   6.9989   7.0638   7.0638   7.0844   7.0844   7.1191   7.1191
     7.1486   7.1486   7.2417   7.2417   7.3236   7.3236   7.3242   7.3242
     7.3411   7.3411   7.4298   7.4298   7.4627   7.4627   7.4844   7.4844
     7.5131   7.5131   7.5673   7.5673   7.5801   7.5801   7.6159   7.6159
     7.6592   7.6592   7.7309   7.7309   7.7835   7.7835   7.7872   7.7872
     7.7927   7.7927   7.8218   7.8218   7.9863   7.9863   8.0150   8.0150
     8.0366   8.0366   8.0827   8.0827   8.1138   8.1138   8.2062   8.2062
     8.2144   8.2144   8.2354   8.2354   8.2558   8.2558   8.2939   8.2939
     8.2996   8.2996   8.4389   8.4389   8.4527   8.4527   8.4788   8.4788
     8.5079   8.5079   8.5496   8.5496   8.6559   8.6559   8.6802   8.6802
     8.7579   8.7579   8.7936   8.7936   8.7951   8.7951   8.7999   8.7999
     8.9358   8.9358   8.9600   8.9600   9.0334   9.0334   9.0365   9.0365
     9.0775   9.0775   9.0919   9.0919   9.1195   9.1195   9.1197   9.1197
     9.1522   9.1522   9.1733   9.1733   9.2180   9.2180   9.2657   9.2657
     9.2790   9.2790   9.4275   9.4275   9.4346   9.4346   9.4442   9.4442
     9.4478   9.4478   9.4827   9.4827   9.6586   9.6586   9.7072   9.7072
     9.7079   9.7079   9.7102   9.7102   9.7675   9.7675   9.7770   9.7770
     9.8407   9.8407   9.9045   9.9045   9.9553   9.9553   9.9823   9.9823
    10.0118  10.0118  10.0858  10.0858  10.1375  10.1375  10.1750  10.1750
    10.2300  10.2300  10.3582  10.3582  10.4069  10.4069  10.4490  10.4490
    10.4912  10.4912  10.5415  10.5415  10.6178  10.6178  10.6332  10.6332
    10.6513  10.6513  10.6520  10.6520  10.6632  10.6632  10.7166  10.7166
    10.9125  10.9125  10.9772  10.9772  11.0142  11.0142  11.0271  11.0271
    11.1098  11.1098  11.1338  11.1338  11.2088  11.2088  11.2245  11.2245
    11.2603  11.2603  11.3003  11.3003  11.3086  11.3086  11.3200  11.3200
    11.3337  11.3337  11.3793  11.3793  11.4412  11.4412  11.4987  11.4987
    11.5257  11.5257  11.5987  11.5987  11.6088  11.6088  11.6356  11.6356
    11.6927  11.6927  11.7600  11.7600  11.7668  11.7668  11.7721  11.7721
    11.8426  11.8426  11.8431  11.8431  11.8739  11.8739  12.0148  12.0148
    12.0284  12.0284  12.0814  12.0814  12.0882  12.0882  12.0926  12.0926
    12.0989  12.0989  12.1873  12.1873  12.2300  12.2300  12.2586  12.2586
    12.2952  12.2952  12.3864  12.3864  12.4259  12.4259  12.4472  12.4472
    12.4921  12.4921  12.5340  12.5340  12.5526  12.5526  12.5785  12.5785
    12.5808  12.5808  12.6144  12.6144  12.6665  12.6665  12.7278  12.7278
    12.7649  12.7649  12.7784  12.7784  12.8337  12.8337  12.9111  12.9111
    12.9154  12.9154  12.9251  12.9251  12.9503  12.9503  13.0055  13.0055
    13.0220  13.0220  13.1165  13.1165  13.1305  13.1305  13.1927  13.1927
    13.2286  13.2286  13.2742  13.2742  13.2773  13.2773  13.3042  13.3042
    13.3264  13.3264  13.3999  13.3999  13.4213  13.4213  13.4306  13.4306
    13.4389  13.4389  13.4525  13.4525  13.5599  13.5599  13.6146  13.6146
    13.6179  13.6179  13.6326  13.6326  13.6492  13.6492  13.6767  13.6767
    13.7154  13.7154  13.7434  13.7434  13.7514  13.7514  13.7992  13.7992
    13.8667  13.8667  13.8982  13.8982  14.0075  14.0075  14.0113  14.0113
    14.0387  14.0387  14.0518  14.0518  14.1046  14.1046  14.1158  14.1158
    14.1443  14.1443  14.1907  14.1907  14.2000  14.2000  14.2195  14.2195
    14.2502  14.2502  14.2551  14.2551  14.3439  14.3440  14.3935  14.3935
    14.4557  14.4558  14.4687  14.4687  14.5066  14.5066  14.5081  14.5081
    14.6114  14.6114  14.6262  14.6316  14.6317

          k = 0.2500 0.0962 0.0000 (220225 PWs)   bands (ev):

    -0.7375  -0.4408  -0.3970  -0.1551  -0.1064  -0.0850   0.0985   0.1711
     0.1796   0.2396   0.3812   0.4363   0.4917   0.6175   0.6466   0.6740
     0.7136   0.7341   0.9013   0.9454   0.9502   1.0345   1.0428   1.1483
     1.1541   1.1648   1.1975   1.2035   1.2652   1.2716   1.2806   1.2940
     1.3078   1.3869   1.3913   1.4697   1.4775   1.4961   1.5125   1.5593
     1.5746   1.5858   1.6009   1.6168   1.6293   1.6344   1.6487   1.6500
     1.6521   1.6685   1.6765   1.6797   1.7008   1.7084   1.7197   1.7417
     1.7709   1.7729   1.7825   1.7839   1.7871   1.7994   1.8185   1.8188
     1.8486   1.8665   1.8747   1.8779   1.8933   1.8993   1.9015   1.9136
     1.9185   1.9251   1.9255   1.9637   1.9813   1.9840   2.0010   2.0012
     2.0119   2.0126   2.0162   2.0196   2.0347   2.0354   2.0453   2.0476
     2.0636   2.0686   2.0728   2.0740   2.0788   2.0921   2.1036   2.1061
     2.1071   2.1106   2.1172   2.1235   2.1247   2.1305   2.1387   2.1456
     2.1478   2.1535   2.1536   2.1543   2.1581   2.1594   2.1603   2.1630
     2.1648   2.1704   2.1809   2.1910   2.1927   2.2020   2.2039   2.2082
     2.2130   2.2153   2.2206   2.2208   2.2284   2.2298   2.2412   2.2441
     2.2480   2.2681   2.2783   2.2798   2.2801   2.2807   2.2832   2.2857
     2.2880   2.2887   2.2917   2.2940   2.2965   2.3007   2.3045   2.3107
     2.3159   2.3275   2.3410   2.3420   2.3422   2.3453   2.3513   2.3514
     2.3559   2.3621   2.3664   2.3727   2.3732   2.3860   2.3872   2.3882
     2.3886   2.4040   2.4078   2.4080   2.4118   2.4138   2.4175   2.4274
     2.4319   2.4335   2.4358   2.4400   2.4489   2.4517   2.4551   2.4578
     2.4588   2.4696   2.4721   2.4731   2.4799   2.4812   2.4920   2.4926
     2.4964   2.5012   2.5058   2.5074   2.5106   2.5222   2.5230   2.5337
     2.5374   2.5384   2.5414   2.5463   2.5469   2.5504   2.5716   2.5777
     2.5813   2.5870   2.5893   2.5893   2.5897   2.5904   2.5945   2.5967
     2.5968   2.5983   2.6012   2.6199   2.6239   2.6293   2.6329   2.6376
     2.6389   2.6406   2.6475   2.6481   2.6623   2.6628   2.6629   2.6675
     2.6753   2.6761   2.6782   2.6846   2.6852   2.6934   2.6952   2.7059
     2.7095   2.7119   2.7154   2.7197   2.7207   2.7220   2.7235   2.7235
     2.7320   2.7326   2.7330   2.7393   2.7503   2.7513   2.7521   2.7528
     2.7620   2.7623   2.7770   2.7856   2.7886   2.7894   2.7925   2.7931
     2.7934   2.8027   2.8037   2.8114   2.8247   2.8257   2.8303   2.8309
     2.8320   2.8477   2.8607   2.8634   2.8648   2.8649   2.8656   2.8669
     2.8783   2.8854   2.8934   2.8949   2.8976   2.8993   2.9002   2.9050
     2.9058   2.9151   2.9188   2.9190   2.9226   2.9233   2.9327   2.9369
     2.9479   2.9512   2.9519   2.9695   2.9761   2.9842   2.9910   2.9913
     2.9943   3.0022   3.0084   3.0182   3.0227   3.0229   3.0248   3.0291
     3.0340   3.0438   3.0603   3.0636   3.0728   3.0742   3.0749   3.0844
     3.0912   3.1061   3.1095   3.1110   3.1110   3.1137   3.1227   3.1266
     3.1433   3.1444   3.1536   3.1624   3.1677   3.1688   3.1690   3.1704
     3.1757   3.1769   3.1783   3.1787   3.1876   3.1885   3.1938   3.1952
     3.1956   3.2069   3.2207   3.2217   3.2235   3.2245   3.2291   3.2304
     3.2325   3.2424   3.2432   3.2541   3.2573   3.2591   3.2594   3.2735
     3.2834   3.2869   3.2931   3.2955   3.2957   3.2987   3.2990   3.3042
     3.3057   3.3059   3.3096   3.3183   3.3236   3.3241   3.3241   3.3286
     3.3288   3.3292   3.3321   3.3379   3.3390   3.3463   3.3476   3.3477
     3.3511   3.3575   3.3593   3.3594   3.3626   3.3670   3.3717   3.3792
     3.3830   3.3855   3.3856   3.3881   3.3898   3.3980   3.4076   3.4110
     3.4113   3.4130   3.4142   3.4162   3.4363   3.4373   3.4373   3.4423
     3.4465   3.4469   3.4513   3.4516   3.4589   3.4620   3.4690   3.4700
     3.4707   3.4727   3.4780   3.4802   3.4851   3.4854   3.4889   3.4908
     3.5039   3.5045   3.5050   3.5068   3.5220   3.5220   3.5237   3.5310
     3.5331   3.5339   3.5372   3.5392   3.5484   3.5523   3.5525   3.5527
     3.5589   3.5611   3.5623   3.5645   3.5675   3.5774   3.5861   3.5887
     3.5921   3.5960   3.5967   3.5979   3.5995   3.6019   3.6083   3.6087
     3.6100   3.6107   3.6131   3.6169   3.6172   3.6212   3.6240   3.6288
     3.6303   3.6438   3.6494   3.6510   3.6542   3.6585   3.6609   3.6684
     3.6699   3.6734   3.6735   3.6835   3.6915   3.6929   3.6967   3.7048
     3.7056   3.7098   3.7136   3.7151   3.7158   3.7173   3.7212   3.7224
     3.7225   3.7244   3.7293   3.7347   3.7367   3.7464   3.7477   3.7589
     3.7631   3.7658   3.7741   3.7748   3.7774   3.7775   3.7918   3.7953
     3.8027   3.8083   3.8096   3.8124   3.8142   3.8153   3.8174   3.8269
     3.8284   3.8311   3.8372   3.8377   3.8387   3.8412   3.8413   3.8467
     3.8497   3.8539   3.8566   3.8586   3.8595   3.8615   3.8618   3.8633
     3.8699   3.8708   3.8751   3.8798   3.8800   3.8809   3.8813   3.8833
     3.8851   3.8919   3.8933   3.8951   3.8980   3.8997   3.9085   3.9140
     3.9181   3.9306   3.9329   3.9335   3.9340   3.9342   3.9344   3.9346
     3.9352   3.9446   3.9518   3.9529   3.9541   3.9554   3.9571   3.9577
     3.9624   3.9659   3.9721   3.9722   3.9739   3.9740   3.9755   3.9759
     3.9762   3.9803   3.9814   3.9829   3.9835   3.9894   3.9926   3.9970
     3.9975   4.0017   4.0050   4.0095   4.0100   4.0113   4.0184   4.0230
     4.0299   4.0303   4.0321   4.0329   4.0331   4.0336   4.0355   4.0455
     4.0517   4.0540   4.0559   4.0579   4.0631   4.0637   4.0657   4.0660
     4.0725   4.0742   4.0743   4.0777   4.0780   4.0804   4.0808   4.0811
     4.0824   4.0918   4.0924   4.0954   4.0955   4.0958   4.0960   4.0969
     4.0986   4.1006   4.1014   4.1050   4.1060   4.1094   4.1101   4.1105
     4.1111   4.1136   4.1255   4.1279   4.1297   4.1318   4.1318   4.1372
     4.1376   4.1376   4.1480   4.1483   4.1498   4.1526   4.1535   4.1554
     4.1582   4.1606   4.1643   4.1680   4.1689   4.1744   4.1749   4.1778
     4.1810   4.1823   4.1829   4.1842   4.1857   4.1888   4.1908   4.1912
     4.1927   4.1933   4.1974   4.1982   4.1986   4.2001   4.2018   4.2034
     4.2051   4.2075   4.2079   4.2081   4.2082   4.2117   4.2182   4.2186
     4.2199   4.2219   4.2224   4.2238   4.2282   4.2284   4.2285   4.2296
     4.2309   4.2342   4.2364   4.2459   4.2469   4.2502   4.2506   4.2516
     4.2581   4.2644   4.2664   4.2694   4.2718   4.2727   4.2860   4.2905
     4.2915   4.2922   4.2931   4.2935   4.2960   4.2963   4.2980   4.2991
     4.3022   4.3028   4.3033   4.3037   4.3118   4.3118   4.3209   4.3213
     4.3225   4.3294   4.3301   4.3319   4.3326   4.3327   4.3405   4.3417
     4.3451   4.3509   4.3523   4.3538   4.3569   4.3574   4.3592   4.3619
     4.3646   4.3648   4.3670   4.3684   4.3760   4.3784   4.3834   4.3867
     4.3876   4.3931   4.3937   4.3960   4.3962   4.3979   4.4036   4.4055
     4.4060   4.4068   4.4123   4.4130   4.4213   4.4263   4.4271   4.4317
[...]
     atom   58 type  1   force =     0.00000000    0.00056248   -0.00383724
     atom   59 type  1   force =     0.00000228    0.00056309   -0.00383690
     atom   60 type  1   force =     0.00000000    0.00056321   -0.00383511
     atom   61 type  1   force =    -0.00000183   -0.00053544    0.00459193
     atom   62 type  1   force =    -0.00000187   -0.00053558    0.00459194
     atom   63 type  1   force =    -0.00000186   -0.00053577    0.00459196
     atom   64 type  1   force =    -0.00000166   -0.00053536    0.00459059
     atom   65 type  1   force =    -0.00000165   -0.00053543    0.00459067
     atom   66 type  1   force =     0.00000187   -0.00053551    0.00459192
     atom   67 type  1   force =     0.00000183   -0.00053544    0.00459193
     atom   68 type  1   force =     0.00000187   -0.00053558    0.00459194
     atom   69 type  1   force =     0.00000186   -0.00053577    0.00459196
     atom   70 type  1   force =    -0.00000230    0.00056308   -0.00383695
     atom   71 type  1   force =    -0.00000230    0.00056292   -0.00383694
     atom   72 type  1   force =     0.00000230    0.00056308   -0.00383695
     atom   73 type  1   force =     0.00000230    0.00056292   -0.00383694
     atom   74 type  1   force =     0.00000000    0.00056320   -0.00383519
     atom   75 type  1   force =     0.00000000    0.00056328   -0.00383521
     atom   76 type  1   force =     0.00000000    0.00056301   -0.00383516
     atom   77 type  1   force =    -0.00000163   -0.00053562    0.00459060
     atom   78 type  1   force =     0.00000166   -0.00053536    0.00459059
     atom   79 type  1   force =     0.00000165   -0.00053543    0.00459067
     atom   80 type  1   force =     0.00000163   -0.00053562    0.00459060
     atom   81 type  1   force =     0.00000200   -0.00045215   -0.00047979
     atom   82 type  1   force =     0.00000000    0.00028501   -0.00071054
     atom   83 type  1   force =    -0.00000224    0.00028587   -0.00071121
     atom   84 type  1   force =     0.00000000    0.00028632   -0.00071268
     atom   85 type  1   force =    -0.00000237   -0.00045246   -0.00048043
     atom   86 type  1   force =     0.00000000    0.00028510   -0.00071063
     atom   87 type  1   force =    -0.00000221    0.00028595   -0.00071124
     atom   88 type  1   force =    -0.00000220    0.00028597   -0.00071129
     atom   89 type  1   force =     0.00000000    0.00028645   -0.00071273
     atom   90 type  1   force =     0.00000221    0.00028595   -0.00071124
     atom   91 type  1   force =    -0.00000239   -0.00045244   -0.00048054
     atom   92 type  1   force =    -0.00000200   -0.00045215   -0.00047979
     atom   93 type  1   force =    -0.00000193   -0.00045207   -0.00047988
     atom   94 type  1   force =     0.00000193   -0.00045207   -0.00047988
     atom   95 type  1   force =     0.00000237   -0.00045246   -0.00048043
     atom   96 type  1   force =     0.00000000    0.00028504   -0.00071056
     atom   97 type  1   force =    -0.00000222    0.00028588   -0.00071137
     atom   98 type  1   force =     0.00000000    0.00028629   -0.00071286
     atom   99 type  1   force =     0.00000224    0.00028587   -0.00071121
     atom  100 type  1   force =     0.00000222    0.00028588   -0.00071137
     atom  101 type  1   force =    -0.00000239   -0.00045242   -0.00048056
     atom  102 type  1   force =    -0.00000241   -0.00045262   -0.00048050
     atom  103 type  1   force =    -0.00000194   -0.00045206   -0.00047993
     atom  104 type  1   force =    -0.00000195   -0.00045225   -0.00047990
     atom  105 type  1   force =     0.00000194   -0.00045206   -0.00047993
     atom  106 type  1   force =     0.00000239   -0.00045244   -0.00048054
     atom  107 type  1   force =     0.00000239   -0.00045242   -0.00048056
     atom  108 type  1   force =     0.00000000    0.00028503   -0.00071068
     atom  109 type  1   force =     0.00000000    0.00028637   -0.00071276
     atom  110 type  1   force =     0.00000220    0.00028597   -0.00071129
     atom  111 type  1   force =     0.00000195   -0.00045225   -0.00047990
     atom  112 type  1   force =     0.00000241   -0.00045262   -0.00048050
     atom  113 type  1   force =    -0.00000126   -0.00018531    0.00042405
     atom  114 type  1   force =     0.00000129   -0.00018524    0.00042403
     atom  115 type  1   force =     0.00000000    0.00019598   -0.00054675
     atom  116 type  1   force =    -0.00000129   -0.00018524    0.00042403
     atom  117 type  1   force =    -0.00000157   -0.00018552    0.00042433
     atom  118 type  1   force =    -0.00000158   -0.00018552    0.00042431
     atom  119 type  1   force =     0.00000157   -0.00018552    0.00042433
     atom  120 type  1   force =    -0.00000247    0.00019665   -0.00054753
     atom  121 type  1   force =    -0.00000242    0.00019683   -0.00054755
     atom  122 type  1   force =     0.00000000    0.00019616   -0.00054679
     atom  123 type  1   force =     0.00000247    0.00019665   -0.00054753
     atom  124 type  1   force =     0.00000000    0.00019607   -0.00054838
     atom  125 type  1   force =    -0.00000130   -0.00018514    0.00042398
     atom  126 type  1   force =    -0.00000131   -0.00018516    0.00042397
     atom  127 type  1   force =    -0.00000159   -0.00018540    0.00042431
     atom  128 type  1   force =    -0.00000159   -0.00018545    0.00042427
     atom  129 type  1   force =     0.00000158   -0.00018552    0.00042431
     atom  130 type  1   force =     0.00000159   -0.00018540    0.00042431
     atom  131 type  1   force =     0.00000159   -0.00018545    0.00042427
     atom  132 type  1   force =     0.00000126   -0.00018531    0.00042405
     atom  133 type  1   force =     0.00000130   -0.00018514    0.00042398
     atom  134 type  1   force =     0.00000131   -0.00018516    0.00042397
     atom  135 type  1   force =    -0.00000246    0.00019672   -0.00054758
     atom  136 type  1   force =    -0.00000248    0.00019672   -0.00054754
     atom  137 type  1   force =     0.00000000    0.00019601   -0.00054679
     atom  138 type  1   force =     0.00000000    0.00019605   -0.00054676
     atom  139 type  1   force =     0.00000242    0.00019683   -0.00054755
     atom  140 type  1   force =     0.00000246    0.00019672   -0.00054758
     atom  141 type  1   force =     0.00000248    0.00019672   -0.00054754
     atom  142 type  1   force =     0.00000000    0.00019631   -0.00054838
     atom  143 type  1   force =     0.00000000    0.00019614   -0.00054846
     atom  144 type  1   force =     0.00000000    0.00019612   -0.00054841
     atom  145 type  1   force =    -0.00000240    0.00018691   -0.00042660
     atom  146 type  1   force =     0.00000000    0.00018655   -0.00042701
     atom  147 type  1   force =     0.00000240    0.00018691   -0.00042660
     atom  148 type  1   force =    -0.00000241   -0.00019582    0.00054549
     atom  149 type  1   force =    -0.00000179   -0.00019468    0.00054552
     atom  150 type  1   force =    -0.00000182   -0.00019473    0.00054548
     atom  151 type  1   force =    -0.00000237    0.00018690   -0.00042651
     atom  152 type  1   force =    -0.00000242    0.00018692   -0.00042662
     atom  153 type  1   force =    -0.00000243    0.00018684   -0.00042659
     atom  154 type  1   force =     0.00000000    0.00018654   -0.00042693
     atom  155 type  1   force =     0.00000000    0.00018658   -0.00042700
     atom  156 type  1   force =     0.00000000    0.00018650   -0.00042701
     atom  157 type  1   force =     0.00000237    0.00018690   -0.00042651
     atom  158 type  1   force =     0.00000242    0.00018692   -0.00042662
     atom  159 type  1   force =     0.00000243    0.00018684   -0.00042659
     atom  160 type  1   force =     0.00000000    0.00018751   -0.00042783
     atom  161 type  1   force =     0.00000000    0.00018750   -0.00042766
     atom  162 type  1   force =     0.00000000    0.00018749   -0.00042785
     atom  163 type  1   force =     0.00000000    0.00018742   -0.00042785
     atom  164 type  1   force =    -0.00000242   -0.00019586    0.00054549
     atom  165 type  1   force =    -0.00000242   -0.00019584    0.00054544
     atom  166 type  1   force =    -0.00000243   -0.00019592    0.00054545
     atom  167 type  1   force =    -0.00000181   -0.00019473    0.00054548
     atom  168 type  1   force =    -0.00000181   -0.00019477    0.00054545
     atom  169 type  1   force =     0.00000179   -0.00019468    0.00054552
     atom  170 type  1   force =     0.00000182   -0.00019473    0.00054548
     atom  171 type  1   force =     0.00000181   -0.00019473    0.00054548
     atom  172 type  1   force =     0.00000181   -0.00019477    0.00054545
     atom  173 type  1   force =     0.00000241   -0.00019582    0.00054549
     atom  174 type  1   force =     0.00000242   -0.00019586    0.00054549
     atom  175 type  1   force =     0.00000242   -0.00019584    0.00054544
     atom  176 type  1   force =     0.00000243   -0.00019592    0.00054545
     atom  177 type  1   force =     0.00000000    0.00045250    0.00048631
     atom  178 type  1   force =     0.00000000    0.00045253    0.00048634
     atom  179 type  1   force =    -0.00000328    0.00045337    0.00048656
     atom  180 type  1   force =    -0.00000331    0.00045338    0.00048654
     atom  181 type  1   force =     0.00000000    0.00045281    0.00048593
     atom  182 type  1   force =     0.00000328    0.00045337    0.00048656
     atom  183 type  1   force =    -0.00000235   -0.00028486    0.00071392
     atom  184 type  1   force =    -0.00000238   -0.00028504    0.00071487
     atom  185 type  1   force =     0.00000238   -0.00028504    0.00071487
     atom  186 type  1   force =     0.00000000    0.00045244    0.00048627
     atom  187 type  1   force =    -0.00000331    0.00045325    0.00048652
     atom  188 type  1   force =    -0.00000331    0.00045331    0.00048645
     atom  189 type  1   force =     0.00000000    0.00045266    0.00048588
     atom  190 type  1   force =     0.00000000    0.00045266    0.00048584
     atom  191 type  1   force =     0.00000331    0.00045325    0.00048652
     atom  192 type  1   force =     0.00000331    0.00045331    0.00048645
     atom  193 type  1   force =    -0.00000234   -0.00028488    0.00071386
     atom  194 type  1   force =    -0.00000238   -0.00028484    0.00071383
     atom  195 type  1   force =    -0.00000231   -0.00028494    0.00071387
     atom  196 type  1   force =    -0.00000242   -0.00028502    0.00071485
     atom  197 type  1   force =    -0.00000239   -0.00028502    0.00071484
     atom  198 type  1   force =    -0.00000242   -0.00028509    0.00071488
     atom  199 type  1   force =     0.00000242   -0.00028502    0.00071485
     atom  200 type  1   force =     0.00000239   -0.00028502    0.00071484
     atom  201 type  1   force =     0.00000242   -0.00028509    0.00071488
     atom  202 type  1   force =     0.00000235   -0.00028486    0.00071392
     atom  203 type  1   force =     0.00000234   -0.00028488    0.00071386
     atom  204 type  1   force =     0.00000238   -0.00028484    0.00071383
     atom  205 type  1   force =     0.00000231   -0.00028494    0.00071387
     atom  206 type  1   force =     0.00000000    0.00045243    0.00048626
     atom  207 type  1   force =     0.00000000    0.00045272    0.00048587
     atom  208 type  1   force =     0.00000331    0.00045338    0.00048654
     atom  209 type  1   force =    -0.00000169   -0.00056202    0.00383049
     atom  210 type  1   force =    -0.00000110   -0.00056250    0.00382998
     atom  211 type  1   force =     0.00000110   -0.00056250    0.00382998
     atom  212 type  1   force =     0.00000168   -0.00056212    0.00383043
     atom  213 type  1   force =    -0.00000256    0.00053586   -0.00459725
     atom  214 type  1   force =     0.00000000    0.00053699   -0.00459791
     atom  215 type  1   force =     0.00000253    0.00053589   -0.00459725
     atom  216 type  1   force =     0.00000000    0.00053477   -0.00459671
     atom  217 type  1   force =    -0.00000174   -0.00056204    0.00383047
     atom  218 type  1   force =    -0.00000168   -0.00056212    0.00383043
     atom  219 type  1   force =    -0.00000170   -0.00056197    0.00383045
     atom  220 type  1   force =    -0.00000116   -0.00056248    0.00382975
     atom  221 type  1   force =    -0.00000117   -0.00056249    0.00382990
     atom  222 type  1   force =     0.00000116   -0.00056248    0.00382975
     atom  223 type  1   force =     0.00000117   -0.00056249    0.00382990
     atom  224 type  1   force =     0.00000174   -0.00056204    0.00383047
     atom  225 type  1   force =     0.00000169   -0.00056202    0.00383049
     atom  226 type  1   force =    -0.00000260    0.00053590   -0.00459728
     atom  227 type  1   force =    -0.00000253    0.00053589   -0.00459725
     atom  228 type  1   force =    -0.00000257    0.00053584   -0.00459726
     atom  229 type  1   force =     0.00000000    0.00053686   -0.00459794
     atom  230 type  1   force =     0.00000000    0.00053688   -0.00459786
     atom  231 type  1   force =     0.00000260    0.00053590   -0.00459728
     atom  232 type  1   force =     0.00000256    0.00053586   -0.00459725
     atom  233 type  1   force =     0.00000000    0.00053469   -0.00459664
     atom  234 type  1   force =     0.00000000    0.00053473   -0.00459667
     atom  235 type  1   force =    -0.00000114   -0.00056243    0.00382991
     atom  236 type  1   force =     0.00000114   -0.00056243    0.00382991
     atom  237 type  1   force =     0.00000170   -0.00056197    0.00383045
     atom  238 type  1   force =     0.00000000    0.00053686   -0.00459797
     atom  239 type  1   force =     0.00000257    0.00053584   -0.00459726
     atom  240 type  1   force =     0.00000000    0.00053471   -0.00459666
     atom  241 type  1   force =    -0.00000274   -0.00333958    0.01659620
     atom  242 type  1   force =     0.00000000   -0.00333949    0.01659566
     atom  243 type  1   force =     0.00000279   -0.00333947    0.01659617
     atom  244 type  1   force =     0.00000000   -0.00333917    0.01659827
     atom  245 type  1   force =    -0.00000134    0.00157510    0.00968660
     atom  246 type  1   force =    -0.00000143    0.00157644    0.00968287
     atom  247 type  1   force =     0.00000143    0.00157644    0.00968287
     atom  248 type  1   force =     0.00000130    0.00157502    0.00968658
     atom  249 type  1   force =    -0.00000295   -0.00333941    0.01659615
     atom  250 type  1   force =    -0.00000279   -0.00333947    0.01659617
     atom  251 type  1   force =    -0.00000286   -0.00333962    0.01659620
     atom  252 type  1   force =     0.00000000   -0.00333949    0.01659551
     atom  253 type  1   force =     0.00000000   -0.00333931    0.01659574
     atom  254 type  1   force =     0.00000295   -0.00333941    0.01659615
     atom  255 type  1   force =     0.00000274   -0.00333958    0.01659620
     atom  256 type  1   force =     0.00000000   -0.00333909    0.01659829
     atom  257 type  1   force =     0.00000000   -0.00333913    0.01659824
     atom  258 type  1   force =    -0.00000132    0.00157511    0.00968657
     atom  259 type  1   force =    -0.00000130    0.00157502    0.00968658
     atom  260 type  1   force =    -0.00000139    0.00157492    0.00968654
     atom  261 type  1   force =    -0.00000152    0.00157664    0.00968274
     atom  262 type  1   force =    -0.00000154    0.00157647    0.00968286
     atom  263 type  1   force =     0.00000152    0.00157664    0.00968274
     atom  264 type  1   force =     0.00000154    0.00157647    0.00968286
     atom  265 type  1   force =     0.00000132    0.00157511    0.00968657
     atom  266 type  1   force =     0.00000134    0.00157510    0.00968660
     atom  267 type  1   force =     0.00000000   -0.00333946    0.01659562
     atom  268 type  1   force =     0.00000286   -0.00333962    0.01659620
     atom  269 type  1   force =     0.00000000   -0.00333915    0.01659827
     atom  270 type  1   force =    -0.00000156    0.00157623    0.00968284
     atom  271 type  1   force =     0.00000156    0.00157623    0.00968284
     atom  272 type  1   force =     0.00000139    0.00157492    0.00968654
     atom  273 type  1   force =    -0.00000065    0.00164931   -0.02671616
     atom  274 type  1   force =     0.00000056    0.00164680   -0.02671959
     atom  275 type  1   force =    -0.00000086    0.00164681   -0.02671972
     atom  276 type  1   force =     0.00000066    0.00164920   -0.02671606
     atom  277 type  1   force =    -0.00000068    0.00164930   -0.02671609
     atom  278 type  1   force =    -0.00000066    0.00164920   -0.02671606
     atom  279 type  1   force =    -0.00000063    0.00164914   -0.02671625
     atom  280 type  1   force =     0.00000051    0.00164713   -0.02671965
     atom  281 type  1   force =     0.00000086    0.00164681   -0.02671972
     atom  282 type  1   force =    -0.00000051    0.00164713   -0.02671965
     atom  283 type  1   force =    -0.00000056    0.00164680   -0.02671959
     atom  284 type  1   force =     0.00000068    0.00164930   -0.02671609
     atom  285 type  1   force =     0.00000065    0.00164931   -0.02671616
     atom  286 type  1   force =     0.00000063    0.00164914   -0.02671625
     atom  287 type  1   force =     0.00000072    0.00164652   -0.02671967
     atom  288 type  1   force =    -0.00000072    0.00164652   -0.02671967

     Total force =     0.190829     Total SCF correction =     0.002947
 
     init_run     :    167.44s CPU     88.66s WALL (       1 calls)
     electrons    :  11831.59s CPU   6103.55s WALL (       1 calls)
     forces       :     52.15s CPU     33.63s WALL (       1 calls)

     Called by init_run:
     wfcinit      :    163.75s CPU     85.31s WALL (       1 calls)
     potinit      :      0.36s CPU      0.22s WALL (       1 calls)
     hinit0       :      0.45s CPU      0.30s WALL (       1 calls)

     Called by electrons:
     c_bands      :  10613.13s CPU   5463.84s WALL (      26 calls)
     sum_band     :   1207.30s CPU    633.13s WALL (      26 calls)
     v_of_rho     :      3.13s CPU      1.70s WALL (      26 calls)
     newd         :      7.00s CPU      4.38s WALL (      26 calls)
     mix_rho      :      0.85s CPU      0.44s WALL (      26 calls)

     Called by c_bands:
     init_us_2    :     12.81s CPU      6.68s WALL (     324 calls)
     cegterg      :  10539.43s CPU   5424.80s WALL (     157 calls)

     Called by *egterg:
     cdiaghg      :   2644.13s CPU   1353.51s WALL (    1287 calls)
     h_psi        :   4903.13s CPU   2536.57s WALL (    1299 calls)
     s_psi        :    487.19s CPU    249.89s WALL (    1299 calls)
     g_psi        :      3.23s CPU      1.63s WALL (    1136 calls)

     Called by h_psi:
     h_psi:calbec :    598.84s CPU    338.28s WALL (    1299 calls)
     vloc_psi     :   3810.34s CPU   1943.20s WALL (    1299 calls)
     add_vuspsi   :    486.30s CPU    250.77s WALL (    1299 calls)

     General routines
     calbec       :    897.89s CPU    508.34s WALL (    1479 calls)
     fft          :      3.60s CPU      1.87s WALL (     348 calls)
     ffts         :      1.19s CPU      0.62s WALL (      52 calls)
     fftw         :   4619.15s CPU   2356.81s WALL ( 1617064 calls)
     interpolate  :      0.48s CPU      0.25s WALL (      26 calls)
 
     Parallel routines
     fft_scatt_xy :    128.26s CPU     66.67s WALL ( 1617464 calls)
     fft_scatt_yz :   4009.59s CPU   2049.68s WALL ( 1617464 calls)
 
     PWSCF        :      3h20m CPU      1h43m WALL

 
   This run was terminated on:  23:44:48  22Sep2021            

=------------------------------------------------------------------------------=
   JOB DONE.
=------------------------------------------------------------------------------=
