
     Program PWSCF v.6.6 starts on 16Sep2021 at 19:55:44 

     This program is part of the open-source Quantum ESPRESSO suite
     for quantum simulation of materials; please cite
         "P. Giannozzi et al., J. Phys.:Condens. Matter 21 395502 (2009);
         "P. Giannozzi et al., J. Phys.:Condens. Matter 29 465901 (2017);
          URL http://www.quantum-espresso.org", 
     in publications or presentations arising from this work. More details at
     http://www.quantum-espresso.org/quote

     Parallel version (MPI & OpenMP), running on     768 processor cores
     Number of MPI processes:               384
     Threads/MPI process:                     2

     MPI processes distributed on    16 nodes
     K-points division:     npool     =       4
     R & G space division:  proc/nbgrp/npool/nimage =      96
     Fft bands division:     nmany     =       1
     Reading input from ../inputs/input_ausurf_576

     Current dimensions of program PWSCF are:
     Max number of different atomic species (ntypx) = 10
     Max number of k-points (npk) =  40000
     Max angular momentum in pseudopotentials (lmaxx) =  3

     Subspace diagonalization in iterative solution of the eigenvalue problem:
     one sub-group per band group will be used
     ELPA distributed-memory algorithm (size of sub-group:  9*  9 procs)

     Found symmetry operation: I + (  0.1250  0.0000  0.0000)
     This is a supercell, fractional translations are disabled
 
     Parallelization info
     --------------------
     sticks:   dense  smooth     PW     G-vecs:    dense   smooth      PW
     Min         499     228     59               118759    36708    4825
     Max         500     229     60               118772    36717    4830
     Sum       47961   21921   5681             11401369  3524293  463395
 

     Title: 
      Ausurf                                                                    


     bravais-lattice index     =            8
     lattice parameter (alat)  =      44.5975  a.u.
     unit-cell volume          =  103111.8970 (a.u.)^3
     number of atoms/cell      =          576
     number of atomic types    =            1
     number of electrons       =      6336.00
     number of Kohn-Sham states=         3802
     kinetic-energy cutoff     =      40.0000  Ry
     charge density cutoff     =     350.0000  Ry
     convergence threshold     =      1.0E-06
     mixing beta               =       0.7000
     number of iterations used =            8  TF        mixing
     Exchange-correlation=  SLA  PW   PBE  PBE
                           (   1   4   3   4   0   0   0)

     celldm(1)=  44.597537  celldm(2)=   0.866025  celldm(3)=   1.342287
     celldm(4)=   0.000000  celldm(5)=   0.000000  celldm(6)=   0.000000

     crystal axes: (cart. coord. in units of alat)
               a(1) = (   1.000000   0.000000   0.000000 )  
               a(2) = (   0.000000   0.866025   0.000000 )  
               a(3) = (   0.000000   0.000000   1.342287 )  

     reciprocal axes: (cart. coord. in units 2 pi/alat)
               b(1) = (  1.000000  0.000000  0.000000 )  
               b(2) = (  0.000000  1.154701  0.000000 )  
               b(3) = (  0.000000  0.000000  0.744997 )  


     PseudoPot. # 1 for Au read from file:
     /marconi/home/userexternal/czeni000/dft_src/pseudo/Au.pbe-nd-van.UPF
     MD5 check sum: deb5c07af10777505a79e28f5b4b4115
     Pseudo is Ultrasoft + core correction, Zval = 11.0
     Generated by new atomic code, or converted to UPF format
     Using radial grid of  985 points,  3 beta functions with: 
                l(1) =   1
                l(2) =   2
                l(3) =   2
     Q(r) pseudized with  8 coefficients,  rinner =    1.100   1.100   1.100
                                                       1.100   1.100

     atomic species   valence    mass     pseudopotential
        Au            11.00   196.96000     Au( 1.00)

      2 Sym. Ops. (no inversion) found



   Cartesian axes

     site n.     atom                  positions (alat units)
         1           Au  tau(   1) = (   0.0000000   0.0000000   0.0000000  )
         2           Au  tau(   2) = (   0.1250000   0.0000000   0.0000000  )
         3           Au  tau(   3) = (   0.2500000   0.0000000   0.0000000  )
         4           Au  tau(   4) = (   0.0000000   0.2165064   0.0000000  )
         5           Au  tau(   5) = (   0.3750000   0.0000000   0.0000000  )
         6           Au  tau(   6) = (   0.1250000   0.2165064   0.0000000  )
         7           Au  tau(   7) = (   0.5000000   0.0000000   0.0000000  )
         8           Au  tau(   8) = (   0.2500000   0.2165064   0.0000000  )
         9           Au  tau(   9) = (   0.6250000   0.0000000   0.0000000  )
        10           Au  tau(  10) = (   0.0000000   0.4330127   0.0000000  )
        11           Au  tau(  11) = (   0.3750000   0.2165064   0.0000000  )
        12           Au  tau(  12) = (   0.7500000   0.0000000   0.0000000  )
        13           Au  tau(  13) = (   0.1250000   0.4330127   0.0000000  )
        14           Au  tau(  14) = (   0.5000000   0.2165064   0.0000000  )
        15           Au  tau(  15) = (   0.8750000   0.0000000   0.0000000  )
        16           Au  tau(  16) = (   0.2500000   0.4330127   0.0000000  )
        17           Au  tau(  17) = (   0.6250000   0.2165064   0.0000000  )
        18           Au  tau(  18) = (   0.0000000   0.6495191   0.0000000  )
        19           Au  tau(  19) = (   0.3750000   0.4330127   0.0000000  )
        20           Au  tau(  20) = (   0.7500000   0.2165064   0.0000000  )
        21           Au  tau(  21) = (   0.1250000   0.6495191   0.0000000  )
        22           Au  tau(  22) = (   0.5000000   0.4330127   0.0000000  )
        23           Au  tau(  23) = (   0.8750000   0.2165064   0.0000000  )
        24           Au  tau(  24) = (   0.2500000   0.6495191   0.0000000  )
        25           Au  tau(  25) = (   0.6250000   0.4330127   0.0000000  )
        26           Au  tau(  26) = (   0.3750000   0.6495191   0.0000000  )
        27           Au  tau(  27) = (   0.7500000   0.4330127   0.0000000  )
        28           Au  tau(  28) = (   0.5000000   0.6495191   0.0000000  )
        29           Au  tau(  29) = (   0.8750000   0.4330127   0.0000000  )
        30           Au  tau(  30) = (   0.6250000   0.6495191   0.0000000  )
        31           Au  tau(  31) = (   0.7500000   0.6495191   0.0000000  )
        32           Au  tau(  32) = (   0.8750000   0.6495191   0.0000000  )
        33           Au  tau(  33) = (   0.0625000   0.0360844   0.1020621  )
        34           Au  tau(  34) = (   0.1875000   0.0360844   0.1020621  )
        35           Au  tau(  35) = (   0.3125000   0.0360844   0.1020621  )
        36           Au  tau(  36) = (   0.0625000   0.2525908   0.1020621  )
        37           Au  tau(  37) = (   0.3125000   0.2525908   0.1020621  )
        38           Au  tau(  38) = (   0.4375000   0.0360844   0.1020621  )
        39           Au  tau(  39) = (   0.6875000   0.0360844   0.1020621  )
        40           Au  tau(  40) = (   0.0625000   0.4690971   0.1020621  )
        41           Au  tau(  41) = (   0.1875000   0.2525908   0.1020621  )
        42           Au  tau(  42) = (   0.1875000   0.4690971   0.1020621  )
        43           Au  tau(  43) = (   0.4375000   0.2525908   0.1020621  )
        44           Au  tau(  44) = (   0.5625000   0.0360844   0.1020621  )
        45           Au  tau(  45) = (   0.5625000   0.2525908   0.1020621  )
        46           Au  tau(  46) = (   0.8125000   0.0360844   0.1020621  )
        47           Au  tau(  47) = (   0.9375000   0.0360844   0.1020621  )
        48           Au  tau(  48) = (   0.1250000   0.1443376   0.1020621  )
        49           Au  tau(  49) = (   0.1250000   0.3608439   0.1020621  )
        50           Au  tau(  50) = (   0.5000000   0.1443376   0.1020621  )
        51           Au  tau(  51) = (   0.1875000   0.6856034   0.1020621  )
        52           Au  tau(  52) = (   0.3125000   0.4690971   0.1020621  )
        53           Au  tau(  53) = (   0.5625000   0.4690971   0.1020621  )
        54           Au  tau(  54) = (   0.6875000   0.2525908   0.1020621  )
        55           Au  tau(  55) = (   0.9375000   0.2525908   0.1020621  )
        56           Au  tau(  56) = (   0.2500000   0.1443376   0.1020621  )
        57           Au  tau(  57) = (   0.3750000   0.1443376   0.1020621  )
        58           Au  tau(  58) = (   0.0625000   0.6856034   0.1020621  )
        59           Au  tau(  59) = (   0.3125000   0.6856034   0.1020621  )
        60           Au  tau(  60) = (   0.4375000   0.4690971   0.1020621  )
        61           Au  tau(  61) = (   0.4375000   0.6856034   0.1020621  )
        62           Au  tau(  62) = (   0.6875000   0.4690971   0.1020621  )
        63           Au  tau(  63) = (   0.8125000   0.2525908   0.1020621  )
        64           Au  tau(  64) = (   0.8125000   0.4690971   0.1020621  )
        65           Au  tau(  65) = (   0.2500000   0.3608439   0.1020621  )
        66           Au  tau(  66) = (   0.3750000   0.3608439   0.1020621  )
        67           Au  tau(  67) = (   0.3750000   0.5773503   0.1020621  )
        68           Au  tau(  68) = (   0.6250000   0.1443376   0.1020621  )
        69           Au  tau(  69) = (   0.7500000   0.1443376   0.1020621  )
        70           Au  tau(  70) = (   0.7500000   0.3608439   0.1020621  )
        71           Au  tau(  71) = (   0.5625000   0.6856034   0.1020621  )
        72           Au  tau(  72) = (   0.9375000   0.4690971   0.1020621  )
        73           Au  tau(  73) = (   0.1250000   0.5773503   0.1020621  )
        74           Au  tau(  74) = (   0.2500000   0.5773503   0.1020621  )
        75           Au  tau(  75) = (   0.5000000   0.3608439   0.1020621  )
        76           Au  tau(  76) = (   0.6250000   0.3608439   0.1020621  )
        77           Au  tau(  77) = (   0.8750000   0.1443376   0.1020621  )
        78           Au  tau(  78) = (   1.0000000   0.1443376   0.1020621  )
        79           Au  tau(  79) = (   0.6875000   0.6856034   0.1020621  )
        80           Au  tau(  80) = (   0.8125000   0.6856034   0.1020621  )
        81           Au  tau(  81) = (   0.1250000   0.7938566   0.1020621  )
        82           Au  tau(  82) = (   0.2500000   0.7938566   0.1020621  )
        83           Au  tau(  83) = (   0.5000000   0.5773503   0.1020621  )
        84           Au  tau(  84) = (   0.6250000   0.5773503   0.1020621  )
        85           Au  tau(  85) = (   0.8750000   0.3608439   0.1020621  )
        86           Au  tau(  86) = (   1.0000000   0.3608439   0.1020621  )
        87           Au  tau(  87) = (   0.9375000   0.6856034   0.1020621  )
        88           Au  tau(  88) = (   0.3750000   0.7938566   0.1020621  )
        89           Au  tau(  89) = (   0.5000000   0.7938566   0.1020621  )
        90           Au  tau(  90) = (   0.6250000   0.7938566   0.1020621  )
        91           Au  tau(  91) = (   0.7500000   0.5773503   0.1020621  )
        92           Au  tau(  92) = (   0.8750000   0.5773503   0.1020621  )
        93           Au  tau(  93) = (   1.0000000   0.5773503   0.1020621  )
        94           Au  tau(  94) = (   0.7500000   0.7938566   0.1020621  )
        95           Au  tau(  95) = (   0.8750000   0.7938566   0.1020621  )
        96           Au  tau(  96) = (   1.0000000   0.7938566   0.1020621  )
        97           Au  tau(  97) = (   0.1250000   0.0721688   0.2041242  )
        98           Au  tau(  98) = (   0.3125000   0.1804219   0.2041242  )
        99           Au  tau(  99) = (   0.2500000   0.0721688   0.2041242  )
       100           Au  tau( 100) = (   0.3750000   0.0721688   0.2041242  )
       101           Au  tau( 101) = (   0.0625000   0.1804219   0.2041242  )
       102           Au  tau( 102) = (   0.1875000   0.1804219   0.2041242  )
       103           Au  tau( 103) = (   0.1250000   0.2886751   0.2041242  )
       104           Au  tau( 104) = (   0.2500000   0.2886751   0.2041242  )
       105           Au  tau( 105) = (   0.2500000   0.5051815   0.2041242  )
       106           Au  tau( 106) = (   0.2500000   0.7216878   0.2041242  )
       107           Au  tau( 107) = (   0.3750000   0.2886751   0.2041242  )
       108           Au  tau( 108) = (   0.5000000   0.0721688   0.2041242  )
       109           Au  tau( 109) = (   0.6250000   0.0721688   0.2041242  )
       110           Au  tau( 110) = (   0.6250000   0.2886751   0.2041242  )
       111           Au  tau( 111) = (   0.6250000   0.5051815   0.2041242  )
       112           Au  tau( 112) = (   0.7500000   0.0721688   0.2041242  )
       113           Au  tau( 113) = (   1.0000000   0.0721688   0.2041242  )
       114           Au  tau( 114) = (   1.0000000   0.2886751   0.2041242  )
       115           Au  tau( 115) = (   0.0625000   0.3969283   0.2041242  )
       116           Au  tau( 116) = (   0.0625000   0.6134347   0.2041242  )
       117           Au  tau( 117) = (   0.0625000   0.8299410   0.2041242  )
       118           Au  tau( 118) = (   0.1875000   0.3969283   0.2041242  )
       119           Au  tau( 119) = (   0.1875000   0.6134347   0.2041242  )
       120           Au  tau( 120) = (   0.4375000   0.1804219   0.2041242  )
       121           Au  tau( 121) = (   0.4375000   0.3969283   0.2041242  )
       122           Au  tau( 122) = (   0.4375000   0.6134347   0.2041242  )
       123           Au  tau( 123) = (   0.4375000   0.8299410   0.2041242  )
       124           Au  tau( 124) = (   0.5625000   0.1804219   0.2041242  )
       125           Au  tau( 125) = (   0.5625000   0.3969283   0.2041242  )
       126           Au  tau( 126) = (   0.8125000   0.1804219   0.2041242  )
       127           Au  tau( 127) = (   0.8125000   0.3969283   0.2041242  )
       128           Au  tau( 128) = (   0.8125000   0.6134347   0.2041242  )
       129           Au  tau( 129) = (   0.9375000   0.1804219   0.2041242  )
       130           Au  tau( 130) = (   0.1250000   0.5051815   0.2041242  )
       131           Au  tau( 131) = (   0.1250000   0.7216878   0.2041242  )
       132           Au  tau( 132) = (   0.3750000   0.5051815   0.2041242  )
       133           Au  tau( 133) = (   0.3750000   0.7216878   0.2041242  )
       134           Au  tau( 134) = (   0.5000000   0.2886751   0.2041242  )
       135           Au  tau( 135) = (   0.5000000   0.5051815   0.2041242  )
       136           Au  tau( 136) = (   0.5000000   0.7216878   0.2041242  )
       137           Au  tau( 137) = (   0.7500000   0.2886751   0.2041242  )
       138           Au  tau( 138) = (   0.7500000   0.5051815   0.2041242  )
       139           Au  tau( 139) = (   0.8750000   0.0721688   0.2041242  )
       140           Au  tau( 140) = (   0.8750000   0.2886751   0.2041242  )
       141           Au  tau( 141) = (   0.8750000   0.5051815   0.2041242  )
       142           Au  tau( 142) = (   0.1875000   0.8299410   0.2041242  )
       143           Au  tau( 143) = (   0.3125000   0.3969283   0.2041242  )
       144           Au  tau( 144) = (   0.3125000   0.6134347   0.2041242  )
       145           Au  tau( 145) = (   0.3125000   0.8299410   0.2041242  )
       146           Au  tau( 146) = (   0.5625000   0.6134347   0.2041242  )
       147           Au  tau( 147) = (   0.6875000   0.1804219   0.2041242  )
       148           Au  tau( 148) = (   0.6875000   0.3969283   0.2041242  )
       149           Au  tau( 149) = (   0.6875000   0.6134347   0.2041242  )
       150           Au  tau( 150) = (   0.9375000   0.3969283   0.2041242  )
       151           Au  tau( 151) = (   0.6250000   0.7216878   0.2041242  )
       152           Au  tau( 152) = (   0.7500000   0.7216878   0.2041242  )
       153           Au  tau( 153) = (   0.8750000   0.7216878   0.2041242  )
       154           Au  tau( 154) = (   1.0000000   0.5051815   0.2041242  )
       155           Au  tau( 155) = (   0.5625000   0.8299410   0.2041242  )
       156           Au  tau( 156) = (   0.6875000   0.8299410   0.2041242  )
       157           Au  tau( 157) = (   0.9375000   0.6134347   0.2041242  )
       158           Au  tau( 158) = (   0.9375000   0.8299410   0.2041242  )
       159           Au  tau( 159) = (   1.0000000   0.7216878   0.2041242  )
       160           Au  tau( 160) = (   0.8125000   0.8299410   0.2041242  )
       161           Au  tau( 161) = (   0.3125000   0.1082532   0.3061862  )
       162           Au  tau( 162) = (   0.0000000   0.0000000   0.3061862  )
       163           Au  tau( 163) = (   0.1250000   0.0000000   0.3061862  )
       164           Au  tau( 164) = (   0.2500000   0.0000000   0.3061862  )
       165           Au  tau( 165) = (   0.0625000   0.1082532   0.3061862  )
       166           Au  tau( 166) = (   0.0000000   0.4330127   0.3061862  )
       167           Au  tau( 167) = (   0.1250000   0.2165064   0.3061862  )
       168           Au  tau( 168) = (   0.1250000   0.4330127   0.3061862  )
       169           Au  tau( 169) = (   0.2500000   0.2165064   0.3061862  )
       170           Au  tau( 170) = (   0.3750000   0.2165064   0.3061862  )
       171           Au  tau( 171) = (   0.5000000   0.0000000   0.3061862  )
       172           Au  tau( 172) = (   0.5000000   0.2165064   0.3061862  )
       173           Au  tau( 173) = (   0.6250000   0.0000000   0.3061862  )
       174           Au  tau( 174) = (   0.7500000   0.0000000   0.3061862  )
       175           Au  tau( 175) = (   0.8750000   0.0000000   0.3061862  )
       176           Au  tau( 176) = (   0.0625000   0.3247595   0.3061862  )
       177           Au  tau( 177) = (   0.1875000   0.1082532   0.3061862  )
       178           Au  tau( 178) = (   0.1875000   0.3247595   0.3061862  )
       179           Au  tau( 179) = (   0.3125000   0.3247595   0.3061862  )
       180           Au  tau( 180) = (   0.4375000   0.1082532   0.3061862  )
       181           Au  tau( 181) = (   0.5625000   0.1082532   0.3061862  )
       182           Au  tau( 182) = (   0.6875000   0.1082532   0.3061862  )
       183           Au  tau( 183) = (   0.8125000   0.7577722   0.3061862  )
       184           Au  tau( 184) = (   0.0000000   0.2165064   0.3061862  )
       185           Au  tau( 185) = (   0.1250000   0.6495191   0.3061862  )
       186           Au  tau( 186) = (   0.2500000   0.6495191   0.3061862  )
       187           Au  tau( 187) = (   0.3750000   0.0000000   0.3061862  )
       188           Au  tau( 188) = (   0.3750000   0.6495191   0.3061862  )
       189           Au  tau( 189) = (   0.5000000   0.4330127   0.3061862  )
       190           Au  tau( 190) = (   0.6250000   0.4330127   0.3061862  )
       191           Au  tau( 191) = (   0.7500000   0.4330127   0.3061862  )
       192           Au  tau( 192) = (   0.8750000   0.2165064   0.3061862  )
       193           Au  tau( 193) = (   0.0625000   0.5412659   0.3061862  )
       194           Au  tau( 194) = (   0.0625000   0.7577722   0.3061862  )
       195           Au  tau( 195) = (   0.1875000   0.5412659   0.3061862  )
       196           Au  tau( 196) = (   0.1875000   0.7577722   0.3061862  )
       197           Au  tau( 197) = (   0.3125000   0.5412659   0.3061862  )
       198           Au  tau( 198) = (   0.4375000   0.3247595   0.3061862  )
       199           Au  tau( 199) = (   0.4375000   0.5412659   0.3061862  )
       200           Au  tau( 200) = (   0.5625000   0.3247595   0.3061862  )
       201           Au  tau( 201) = (   0.5625000   0.5412659   0.3061862  )
       202           Au  tau( 202) = (   0.6875000   0.3247595   0.3061862  )
       203           Au  tau( 203) = (   0.8125000   0.1082532   0.3061862  )
       204           Au  tau( 204) = (   0.8125000   0.3247595   0.3061862  )
       205           Au  tau( 205) = (   0.9375000   0.1082532   0.3061862  )
       206           Au  tau( 206) = (   0.9375000   0.3247595   0.3061862  )
       207           Au  tau( 207) = (   0.9375000   0.7577722   0.3061862  )
       208           Au  tau( 208) = (   0.0000000   0.6495191   0.3061862  )
       209           Au  tau( 209) = (   0.2500000   0.4330127   0.3061862  )
       210           Au  tau( 210) = (   0.3750000   0.4330127   0.3061862  )
       211           Au  tau( 211) = (   0.5000000   0.6495191   0.3061862  )
       212           Au  tau( 212) = (   0.6250000   0.2165064   0.3061862  )
       213           Au  tau( 213) = (   0.6250000   0.6495191   0.3061862  )
       214           Au  tau( 214) = (   0.7500000   0.2165064   0.3061862  )
       215           Au  tau( 215) = (   0.7500000   0.6495191   0.3061862  )
       216           Au  tau( 216) = (   0.8750000   0.4330127   0.3061862  )
       217           Au  tau( 217) = (   0.8750000   0.6495191   0.3061862  )
       218           Au  tau( 218) = (   0.3125000   0.7577722   0.3061862  )
       219           Au  tau( 219) = (   0.4375000   0.7577722   0.3061862  )
       220           Au  tau( 220) = (   0.5625000   0.7577722   0.3061862  )
       221           Au  tau( 221) = (   0.6875000   0.5412659   0.3061862  )
       222           Au  tau( 222) = (   0.6875000   0.7577722   0.3061862  )
       223           Au  tau( 223) = (   0.8125000   0.5412659   0.3061862  )
       224           Au  tau( 224) = (   0.9375000   0.5412659   0.3061862  )
       225           Au  tau( 225) = (   0.0625000   0.2525908   0.4082483  )
       226           Au  tau( 226) = (   0.4375000   0.0360844   0.4082483  )
       227           Au  tau( 227) = (   0.2500000   0.1443376   0.4082483  )
       228           Au  tau( 228) = (   0.0625000   0.0360844   0.4082483  )
       229           Au  tau( 229) = (   0.1875000   0.0360844   0.4082483  )
       230           Au  tau( 230) = (   0.1875000   0.2525908   0.4082483  )
       231           Au  tau( 231) = (   0.3125000   0.0360844   0.4082483  )
       232           Au  tau( 232) = (   0.5625000   0.0360844   0.4082483  )
       233           Au  tau( 233) = (   0.1250000   0.1443376   0.4082483  )
       234           Au  tau( 234) = (   0.1250000   0.3608439   0.4082483  )
       235           Au  tau( 235) = (   0.2500000   0.3608439   0.4082483  )
       236           Au  tau( 236) = (   0.3750000   0.1443376   0.4082483  )
       237           Au  tau( 237) = (   0.5000000   0.1443376   0.4082483  )
       238           Au  tau( 238) = (   0.6250000   0.1443376   0.4082483  )
       239           Au  tau( 239) = (   0.0625000   0.4690971   0.4082483  )
       240           Au  tau( 240) = (   0.0625000   0.6856034   0.4082483  )
       241           Au  tau( 241) = (   0.1875000   0.4690971   0.4082483  )
       242           Au  tau( 242) = (   0.1875000   0.6856034   0.4082483  )
       243           Au  tau( 243) = (   0.3125000   0.2525908   0.4082483  )
       244           Au  tau( 244) = (   0.3125000   0.4690971   0.4082483  )
       245           Au  tau( 245) = (   0.3125000   0.6856034   0.4082483  )
       246           Au  tau( 246) = (   0.4375000   0.2525908   0.4082483  )
       247           Au  tau( 247) = (   0.4375000   0.4690971   0.4082483  )
       248           Au  tau( 248) = (   0.4375000   0.6856034   0.4082483  )
       249           Au  tau( 249) = (   0.5625000   0.2525908   0.4082483  )
       250           Au  tau( 250) = (   0.5625000   0.4690971   0.4082483  )
       251           Au  tau( 251) = (   0.5625000   0.6856034   0.4082483  )
       252           Au  tau( 252) = (   0.6875000   0.0360844   0.4082483  )
       253           Au  tau( 253) = (   0.6875000   0.2525908   0.4082483  )
       254           Au  tau( 254) = (   0.6875000   0.4690971   0.4082483  )
       255           Au  tau( 255) = (   0.8125000   0.0360844   0.4082483  )
       256           Au  tau( 256) = (   0.8125000   0.2525908   0.4082483  )
       257           Au  tau( 257) = (   0.8125000   0.4690971   0.4082483  )
       258           Au  tau( 258) = (   0.9375000   0.0360844   0.4082483  )
       259           Au  tau( 259) = (   0.9375000   0.2525908   0.4082483  )
       260           Au  tau( 260) = (   0.9375000   0.4690971   0.4082483  )
       261           Au  tau( 261) = (   0.1250000   0.5773503   0.4082483  )
       262           Au  tau( 262) = (   0.1250000   0.7938566   0.4082483  )
       263           Au  tau( 263) = (   0.2500000   0.5773503   0.4082483  )
       264           Au  tau( 264) = (   0.2500000   0.7938566   0.4082483  )
       265           Au  tau( 265) = (   0.3750000   0.3608439   0.4082483  )
       266           Au  tau( 266) = (   0.3750000   0.5773503   0.4082483  )
       267           Au  tau( 267) = (   0.3750000   0.7938566   0.4082483  )
       268           Au  tau( 268) = (   0.5000000   0.3608439   0.4082483  )
       269           Au  tau( 269) = (   0.5000000   0.5773503   0.4082483  )
       270           Au  tau( 270) = (   0.6250000   0.3608439   0.4082483  )
       271           Au  tau( 271) = (   0.6250000   0.5773503   0.4082483  )
       272           Au  tau( 272) = (   0.7500000   0.1443376   0.4082483  )
       273           Au  tau( 273) = (   0.7500000   0.3608439   0.4082483  )
       274           Au  tau( 274) = (   0.7500000   0.5773503   0.4082483  )
       275           Au  tau( 275) = (   0.7500000   0.7938566   0.4082483  )
       276           Au  tau( 276) = (   0.8750000   0.1443376   0.4082483  )
       277           Au  tau( 277) = (   0.8750000   0.3608439   0.4082483  )
       278           Au  tau( 278) = (   1.0000000   0.1443376   0.4082483  )
       279           Au  tau( 279) = (   1.0000000   0.3608439   0.4082483  )
       280           Au  tau( 280) = (   0.6875000   0.6856034   0.4082483  )
       281           Au  tau( 281) = (   0.8125000   0.6856034   0.4082483  )
       282           Au  tau( 282) = (   0.9375000   0.6856034   0.4082483  )
       283           Au  tau( 283) = (   0.5000000   0.7938566   0.4082483  )
       284           Au  tau( 284) = (   0.6250000   0.7938566   0.4082483  )
       285           Au  tau( 285) = (   0.8750000   0.5773503   0.4082483  )
       286           Au  tau( 286) = (   0.8750000   0.7938566   0.4082483  )
       287           Au  tau( 287) = (   1.0000000   0.5773503   0.4082483  )
       288           Au  tau( 288) = (   1.0000000   0.7938566   0.4082483  )
       289           Au  tau( 289) = (   0.1250000   0.0721688   0.5103104  )
       290           Au  tau( 290) = (   0.2500000   0.0721688   0.5103104  )
       291           Au  tau( 291) = (   0.3750000   0.0721688   0.5103104  )
       292           Au  tau( 292) = (   0.0625000   0.1804219   0.5103104  )
       293           Au  tau( 293) = (   0.1875000   0.1804219   0.5103104  )
       294           Au  tau( 294) = (   0.1875000   0.3969283   0.5103104  )
       295           Au  tau( 295) = (   0.5625000   0.1804219   0.5103104  )
       296           Au  tau( 296) = (   0.1250000   0.2886751   0.5103104  )
       297           Au  tau( 297) = (   0.1250000   0.5051815   0.5103104  )
       298           Au  tau( 298) = (   0.1250000   0.7216878   0.5103104  )
       299           Au  tau( 299) = (   0.2500000   0.2886751   0.5103104  )
       300           Au  tau( 300) = (   0.2500000   0.5051815   0.5103104  )
       301           Au  tau( 301) = (   0.2500000   0.7216878   0.5103104  )
       302           Au  tau( 302) = (   0.3750000   0.2886751   0.5103104  )
       303           Au  tau( 303) = (   0.3750000   0.5051815   0.5103104  )
       304           Au  tau( 304) = (   0.3750000   0.7216878   0.5103104  )
       305           Au  tau( 305) = (   0.5000000   0.0721688   0.5103104  )
       306           Au  tau( 306) = (   0.5000000   0.2886751   0.5103104  )
       307           Au  tau( 307) = (   0.5000000   0.5051815   0.5103104  )
       308           Au  tau( 308) = (   0.5000000   0.7216878   0.5103104  )
       309           Au  tau( 309) = (   0.6250000   0.0721688   0.5103104  )
       310           Au  tau( 310) = (   0.6250000   0.2886751   0.5103104  )
       311           Au  tau( 311) = (   0.6250000   0.5051815   0.5103104  )
       312           Au  tau( 312) = (   0.7500000   0.0721688   0.5103104  )
       313           Au  tau( 313) = (   0.7500000   0.2886751   0.5103104  )
       314           Au  tau( 314) = (   0.7500000   0.5051815   0.5103104  )
       315           Au  tau( 315) = (   0.8750000   0.0721688   0.5103104  )
       316           Au  tau( 316) = (   0.8750000   0.2886751   0.5103104  )
       317           Au  tau( 317) = (   0.8750000   0.5051815   0.5103104  )
       318           Au  tau( 318) = (   1.0000000   0.0721688   0.5103104  )
       319           Au  tau( 319) = (   1.0000000   0.2886751   0.5103104  )
       320           Au  tau( 320) = (   0.0625000   0.3969283   0.5103104  )
       321           Au  tau( 321) = (   0.0625000   0.6134347   0.5103104  )
       322           Au  tau( 322) = (   0.0625000   0.8299410   0.5103104  )
       323           Au  tau( 323) = (   0.1875000   0.6134347   0.5103104  )
       324           Au  tau( 324) = (   0.1875000   0.8299410   0.5103104  )
       325           Au  tau( 325) = (   0.3125000   0.1804219   0.5103104  )
       326           Au  tau( 326) = (   0.3125000   0.3969283   0.5103104  )
       327           Au  tau( 327) = (   0.3125000   0.6134347   0.5103104  )
       328           Au  tau( 328) = (   0.3125000   0.8299410   0.5103104  )
       329           Au  tau( 329) = (   0.4375000   0.1804219   0.5103104  )
       330           Au  tau( 330) = (   0.4375000   0.3969283   0.5103104  )
       331           Au  tau( 331) = (   0.4375000   0.6134347   0.5103104  )
       332           Au  tau( 332) = (   0.5625000   0.3969283   0.5103104  )
       333           Au  tau( 333) = (   0.5625000   0.6134347   0.5103104  )
       334           Au  tau( 334) = (   0.6875000   0.1804219   0.5103104  )
       335           Au  tau( 335) = (   0.6875000   0.3969283   0.5103104  )
       336           Au  tau( 336) = (   0.6875000   0.6134347   0.5103104  )
       337           Au  tau( 337) = (   0.8125000   0.1804219   0.5103104  )
       338           Au  tau( 338) = (   0.8125000   0.3969283   0.5103104  )
       339           Au  tau( 339) = (   0.9375000   0.1804219   0.5103104  )
       340           Au  tau( 340) = (   0.9375000   0.3969283   0.5103104  )
       341           Au  tau( 341) = (   0.6250000   0.7216878   0.5103104  )
       342           Au  tau( 342) = (   0.7500000   0.7216878   0.5103104  )
       343           Au  tau( 343) = (   0.8750000   0.7216878   0.5103104  )
       344           Au  tau( 344) = (   1.0000000   0.5051815   0.5103104  )
       345           Au  tau( 345) = (   1.0000000   0.7216878   0.5103104  )
       346           Au  tau( 346) = (   0.4375000   0.8299410   0.5103104  )
       347           Au  tau( 347) = (   0.5625000   0.8299410   0.5103104  )
       348           Au  tau( 348) = (   0.6875000   0.8299410   0.5103104  )
       349           Au  tau( 349) = (   0.8125000   0.6134347   0.5103104  )
       350           Au  tau( 350) = (   0.8125000   0.8299410   0.5103104  )
       351           Au  tau( 351) = (   0.9375000   0.6134347   0.5103104  )
       352           Au  tau( 352) = (   0.9375000   0.8299410   0.5103104  )
       353           Au  tau( 353) = (   0.0000000   0.0000000   0.6123724  )
       354           Au  tau( 354) = (   0.0000000   0.2165064   0.6123724  )
       355           Au  tau( 355) = (   0.1250000   0.0000000   0.6123724  )
       356           Au  tau( 356) = (   0.1250000   0.2165064   0.6123724  )
       357           Au  tau( 357) = (   0.2500000   0.0000000   0.6123724  )
       358           Au  tau( 358) = (   0.3750000   0.0000000   0.6123724  )
       359           Au  tau( 359) = (   0.5000000   0.0000000   0.6123724  )
       360           Au  tau( 360) = (   0.0625000   0.1082532   0.6123724  )
       361           Au  tau( 361) = (   0.1875000   0.1082532   0.6123724  )
       362           Au  tau( 362) = (   0.3125000   0.1082532   0.6123724  )
       363           Au  tau( 363) = (   0.0000000   0.6495191   0.6123724  )
       364           Au  tau( 364) = (   0.1250000   0.4330127   0.6123724  )
       365           Au  tau( 365) = (   0.1250000   0.6495191   0.6123724  )
       366           Au  tau( 366) = (   0.2500000   0.4330127   0.6123724  )
       367           Au  tau( 367) = (   0.2500000   0.6495191   0.6123724  )
       368           Au  tau( 368) = (   0.3750000   0.4330127   0.6123724  )
       369           Au  tau( 369) = (   0.3750000   0.6495191   0.6123724  )
       370           Au  tau( 370) = (   0.5000000   0.2165064   0.6123724  )
       371           Au  tau( 371) = (   0.5000000   0.4330127   0.6123724  )
       372           Au  tau( 372) = (   0.5000000   0.6495191   0.6123724  )
       373           Au  tau( 373) = (   0.6250000   0.2165064   0.6123724  )
       374           Au  tau( 374) = (   0.6250000   0.4330127   0.6123724  )
       375           Au  tau( 375) = (   0.6250000   0.6495191   0.6123724  )
       376           Au  tau( 376) = (   0.7500000   0.2165064   0.6123724  )
       377           Au  tau( 377) = (   0.7500000   0.4330127   0.6123724  )
       378           Au  tau( 378) = (   0.8750000   0.0000000   0.6123724  )
       379           Au  tau( 379) = (   0.8750000   0.2165064   0.6123724  )
       380           Au  tau( 380) = (   0.8750000   0.4330127   0.6123724  )
       381           Au  tau( 381) = (   0.0625000   0.3247595   0.6123724  )
       382           Au  tau( 382) = (   0.0625000   0.5412659   0.6123724  )
       383           Au  tau( 383) = (   0.0625000   0.7577722   0.6123724  )
       384           Au  tau( 384) = (   0.1875000   0.3247595   0.6123724  )
       385           Au  tau( 385) = (   0.1875000   0.5412659   0.6123724  )
       386           Au  tau( 386) = (   0.1875000   0.7577722   0.6123724  )
       387           Au  tau( 387) = (   0.3125000   0.3247595   0.6123724  )
       388           Au  tau( 388) = (   0.3125000   0.5412659   0.6123724  )
       389           Au  tau( 389) = (   0.3125000   0.7577722   0.6123724  )
       390           Au  tau( 390) = (   0.4375000   0.1082532   0.6123724  )
       391           Au  tau( 391) = (   0.4375000   0.3247595   0.6123724  )
       392           Au  tau( 392) = (   0.4375000   0.5412659   0.6123724  )
       393           Au  tau( 393) = (   0.4375000   0.7577722   0.6123724  )
       394           Au  tau( 394) = (   0.5625000   0.1082532   0.6123724  )
       395           Au  tau( 395) = (   0.5625000   0.3247595   0.6123724  )
       396           Au  tau( 396) = (   0.5625000   0.5412659   0.6123724  )
       397           Au  tau( 397) = (   0.6875000   0.1082532   0.6123724  )
       398           Au  tau( 398) = (   0.6875000   0.3247595   0.6123724  )
       399           Au  tau( 399) = (   0.6875000   0.5412659   0.6123724  )
       400           Au  tau( 400) = (   0.8125000   0.1082532   0.6123724  )
       401           Au  tau( 401) = (   0.8125000   0.3247595   0.6123724  )
       402           Au  tau( 402) = (   0.8125000   0.5412659   0.6123724  )
       403           Au  tau( 403) = (   0.9375000   0.1082532   0.6123724  )
       404           Au  tau( 404) = (   0.9375000   0.3247595   0.6123724  )
       405           Au  tau( 405) = (   0.0000000   0.4330127   0.6123724  )
       406           Au  tau( 406) = (   0.2500000   0.2165064   0.6123724  )
       407           Au  tau( 407) = (   0.3750000   0.2165064   0.6123724  )
       408           Au  tau( 408) = (   0.6250000   0.0000000   0.6123724  )
       409           Au  tau( 409) = (   0.7500000   0.0000000   0.6123724  )
       410           Au  tau( 410) = (   0.5625000   0.7577722   0.6123724  )
       411           Au  tau( 411) = (   0.6875000   0.7577722   0.6123724  )
       412           Au  tau( 412) = (   0.9375000   0.5412659   0.6123724  )
       413           Au  tau( 413) = (   0.7500000   0.6495191   0.6123724  )
       414           Au  tau( 414) = (   0.8750000   0.6495191   0.6123724  )
       415           Au  tau( 415) = (   0.8125000   0.7577722   0.6123724  )
       416           Au  tau( 416) = (   0.9375000   0.7577722   0.6123724  )
       417           Au  tau( 417) = (   0.0625000   0.4690971   0.7144345  )
       418           Au  tau( 418) = (   0.1875000   0.4690971   0.7144345  )
       419           Au  tau( 419) = (   0.3125000   0.4690971   0.7144345  )
       420           Au  tau( 420) = (   0.4375000   0.2525908   0.7144345  )
       421           Au  tau( 421) = (   0.5625000   0.2525908   0.7144345  )
       422           Au  tau( 422) = (   0.6875000   0.2525908   0.7144345  )
       423           Au  tau( 423) = (   0.8125000   0.0360844   0.7144345  )
       424           Au  tau( 424) = (   0.9375000   0.0360844   0.7144345  )
       425           Au  tau( 425) = (   0.1250000   0.5773503   0.7144345  )
       426           Au  tau( 426) = (   0.2500000   0.3608439   0.7144345  )
       427           Au  tau( 427) = (   0.3750000   0.3608439   0.7144345  )
       428           Au  tau( 428) = (   0.5000000   0.3608439   0.7144345  )
       429           Au  tau( 429) = (   0.6250000   0.1443376   0.7144345  )
       430           Au  tau( 430) = (   0.7500000   0.1443376   0.7144345  )
       431           Au  tau( 431) = (   0.8750000   0.1443376   0.7144345  )
       432           Au  tau( 432) = (   0.0625000   0.0360844   0.7144345  )
       433           Au  tau( 433) = (   0.0625000   0.2525908   0.7144345  )
       434           Au  tau( 434) = (   0.0625000   0.6856034   0.7144345  )
       435           Au  tau( 435) = (   0.1875000   0.0360844   0.7144345  )
       436           Au  tau( 436) = (   0.1875000   0.2525908   0.7144345  )
       437           Au  tau( 437) = (   0.3125000   0.0360844   0.7144345  )
       438           Au  tau( 438) = (   0.3125000   0.2525908   0.7144345  )
       439           Au  tau( 439) = (   0.4375000   0.0360844   0.7144345  )
       440           Au  tau( 440) = (   0.4375000   0.4690971   0.7144345  )
       441           Au  tau( 441) = (   0.5625000   0.0360844   0.7144345  )
       442           Au  tau( 442) = (   0.6875000   0.0360844   0.7144345  )
       443           Au  tau( 443) = (   0.8125000   0.2525908   0.7144345  )
       444           Au  tau( 444) = (   0.1250000   0.1443376   0.7144345  )
       445           Au  tau( 445) = (   0.1250000   0.3608439   0.7144345  )
       446           Au  tau( 446) = (   0.1250000   0.7938566   0.7144345  )
       447           Au  tau( 447) = (   0.2500000   0.1443376   0.7144345  )
       448           Au  tau( 448) = (   0.2500000   0.5773503   0.7144345  )
       449           Au  tau( 449) = (   0.3750000   0.1443376   0.7144345  )
       450           Au  tau( 450) = (   0.3750000   0.5773503   0.7144345  )
       451           Au  tau( 451) = (   0.5000000   0.1443376   0.7144345  )
       452           Au  tau( 452) = (   0.5000000   0.5773503   0.7144345  )
       453           Au  tau( 453) = (   0.6250000   0.3608439   0.7144345  )
       454           Au  tau( 454) = (   0.7500000   0.3608439   0.7144345  )
       455           Au  tau( 455) = (   0.8750000   0.3608439   0.7144345  )
       456           Au  tau( 456) = (   1.0000000   0.1443376   0.7144345  )
       457           Au  tau( 457) = (   0.1875000   0.6856034   0.7144345  )
       458           Au  tau( 458) = (   0.3125000   0.6856034   0.7144345  )
       459           Au  tau( 459) = (   0.4375000   0.6856034   0.7144345  )
       460           Au  tau( 460) = (   0.5625000   0.4690971   0.7144345  )
       461           Au  tau( 461) = (   0.5625000   0.6856034   0.7144345  )
       462           Au  tau( 462) = (   0.6875000   0.4690971   0.7144345  )
       463           Au  tau( 463) = (   0.6875000   0.6856034   0.7144345  )
       464           Au  tau( 464) = (   0.8125000   0.4690971   0.7144345  )
       465           Au  tau( 465) = (   0.8125000   0.6856034   0.7144345  )
       466           Au  tau( 466) = (   0.9375000   0.2525908   0.7144345  )
       467           Au  tau( 467) = (   0.9375000   0.4690971   0.7144345  )
       468           Au  tau( 468) = (   0.9375000   0.6856034   0.7144345  )
       469           Au  tau( 469) = (   0.2500000   0.7938566   0.7144345  )
       470           Au  tau( 470) = (   0.3750000   0.7938566   0.7144345  )
       471           Au  tau( 471) = (   0.5000000   0.7938566   0.7144345  )
       472           Au  tau( 472) = (   0.6250000   0.5773503   0.7144345  )
       473           Au  tau( 473) = (   0.6250000   0.7938566   0.7144345  )
       474           Au  tau( 474) = (   0.7500000   0.5773503   0.7144345  )
       475           Au  tau( 475) = (   0.7500000   0.7938566   0.7144345  )
       476           Au  tau( 476) = (   0.8750000   0.5773503   0.7144345  )
       477           Au  tau( 477) = (   0.8750000   0.7938566   0.7144345  )
       478           Au  tau( 478) = (   1.0000000   0.3608439   0.7144345  )
       479           Au  tau( 479) = (   1.0000000   0.5773503   0.7144345  )
       480           Au  tau( 480) = (   1.0000000   0.7938566   0.7144345  )
       481           Au  tau( 481) = (   0.1250000   0.5051815   0.8164966  )
       482           Au  tau( 482) = (   0.2500000   0.5051815   0.8164966  )
       483           Au  tau( 483) = (   0.3750000   0.2886751   0.8164966  )
       484           Au  tau( 484) = (   0.5000000   0.2886751   0.8164966  )
       485           Au  tau( 485) = (   0.6250000   0.2886751   0.8164966  )
       486           Au  tau( 486) = (   0.7500000   0.0721688   0.8164966  )
       487           Au  tau( 487) = (   0.8750000   0.0721688   0.8164966  )
       488           Au  tau( 488) = (   1.0000000   0.0721688   0.8164966  )
       489           Au  tau( 489) = (   0.0625000   0.6134347   0.8164966  )
       490           Au  tau( 490) = (   0.1875000   0.3969283   0.8164966  )
       491           Au  tau( 491) = (   0.3125000   0.3969283   0.8164966  )
       492           Au  tau( 492) = (   0.4375000   0.3969283   0.8164966  )
       493           Au  tau( 493) = (   0.5625000   0.1804219   0.8164966  )
       494           Au  tau( 494) = (   0.6875000   0.1804219   0.8164966  )
       495           Au  tau( 495) = (   0.8125000   0.1804219   0.8164966  )
       496           Au  tau( 496) = (   0.1250000   0.0721688   0.8164966  )
       497           Au  tau( 497) = (   0.1250000   0.2886751   0.8164966  )
       498           Au  tau( 498) = (   0.1250000   0.7216878   0.8164966  )
       499           Au  tau( 499) = (   0.2500000   0.0721688   0.8164966  )
       500           Au  tau( 500) = (   0.2500000   0.2886751   0.8164966  )
       501           Au  tau( 501) = (   0.3750000   0.0721688   0.8164966  )
       502           Au  tau( 502) = (   0.3750000   0.5051815   0.8164966  )
       503           Au  tau( 503) = (   0.5000000   0.0721688   0.8164966  )
       504           Au  tau( 504) = (   0.5000000   0.5051815   0.8164966  )
       505           Au  tau( 505) = (   0.6250000   0.0721688   0.8164966  )
       506           Au  tau( 506) = (   0.7500000   0.2886751   0.8164966  )
       507           Au  tau( 507) = (   0.8750000   0.2886751   0.8164966  )
       508           Au  tau( 508) = (   0.0625000   0.1804219   0.8164966  )
       509           Au  tau( 509) = (   0.0625000   0.3969283   0.8164966  )
       510           Au  tau( 510) = (   0.0625000   0.8299410   0.8164966  )
       511           Au  tau( 511) = (   0.1875000   0.1804219   0.8164966  )
       512           Au  tau( 512) = (   0.1875000   0.6134347   0.8164966  )
       513           Au  tau( 513) = (   0.3125000   0.1804219   0.8164966  )
       514           Au  tau( 514) = (   0.3125000   0.6134347   0.8164966  )
       515           Au  tau( 515) = (   0.4375000   0.1804219   0.8164966  )
       516           Au  tau( 516) = (   0.4375000   0.6134347   0.8164966  )
       517           Au  tau( 517) = (   0.5625000   0.3969283   0.8164966  )
       518           Au  tau( 518) = (   0.6875000   0.3969283   0.8164966  )
       519           Au  tau( 519) = (   0.8125000   0.3969283   0.8164966  )
       520           Au  tau( 520) = (   0.9375000   0.1804219   0.8164966  )
       521           Au  tau( 521) = (   0.2500000   0.7216878   0.8164966  )
       522           Au  tau( 522) = (   0.3750000   0.7216878   0.8164966  )
       523           Au  tau( 523) = (   0.5000000   0.7216878   0.8164966  )
       524           Au  tau( 524) = (   0.6250000   0.5051815   0.8164966  )
       525           Au  tau( 525) = (   0.6250000   0.7216878   0.8164966  )
       526           Au  tau( 526) = (   0.7500000   0.5051815   0.8164966  )
       527           Au  tau( 527) = (   0.7500000   0.7216878   0.8164966  )
       528           Au  tau( 528) = (   0.8750000   0.5051815   0.8164966  )
       529           Au  tau( 529) = (   0.8750000   0.7216878   0.8164966  )
       530           Au  tau( 530) = (   1.0000000   0.2886751   0.8164966  )
       531           Au  tau( 531) = (   1.0000000   0.5051815   0.8164966  )
       532           Au  tau( 532) = (   1.0000000   0.7216878   0.8164966  )
       533           Au  tau( 533) = (   0.1875000   0.8299410   0.8164966  )
       534           Au  tau( 534) = (   0.3125000   0.8299410   0.8164966  )
       535           Au  tau( 535) = (   0.4375000   0.8299410   0.8164966  )
       536           Au  tau( 536) = (   0.5625000   0.6134347   0.8164966  )
       537           Au  tau( 537) = (   0.5625000   0.8299410   0.8164966  )
       538           Au  tau( 538) = (   0.6875000   0.6134347   0.8164966  )
       539           Au  tau( 539) = (   0.6875000   0.8299410   0.8164966  )
       540           Au  tau( 540) = (   0.8125000   0.6134347   0.8164966  )
       541           Au  tau( 541) = (   0.8125000   0.8299410   0.8164966  )
       542           Au  tau( 542) = (   0.9375000   0.3969283   0.8164966  )
       543           Au  tau( 543) = (   0.9375000   0.6134347   0.8164966  )
       544           Au  tau( 544) = (   0.9375000   0.8299410   0.8164966  )
       545           Au  tau( 545) = (   0.0625000   0.5412659   0.9185586  )
       546           Au  tau( 546) = (   0.1875000   0.5412659   0.9185586  )
       547           Au  tau( 547) = (   0.3125000   0.3247595   0.9185586  )
       548           Au  tau( 548) = (   0.4375000   0.3247595   0.9185586  )
       549           Au  tau( 549) = (   0.5625000   0.3247595   0.9185586  )
       550           Au  tau( 550) = (   0.6875000   0.1082532   0.9185586  )
       551           Au  tau( 551) = (   0.8125000   0.1082532   0.9185586  )
       552           Au  tau( 552) = (   0.9375000   0.1082532   0.9185586  )
       553           Au  tau( 553) = (   0.0625000   0.1082532   0.9185586  )
       554           Au  tau( 554) = (   0.0625000   0.3247595   0.9185586  )
       555           Au  tau( 555) = (   0.0625000   0.7577722   0.9185586  )
       556           Au  tau( 556) = (   0.1875000   0.1082532   0.9185586  )
       557           Au  tau( 557) = (   0.1875000   0.3247595   0.9185586  )
       558           Au  tau( 558) = (   0.3125000   0.1082532   0.9185586  )
       559           Au  tau( 559) = (   0.3125000   0.5412659   0.9185586  )
       560           Au  tau( 560) = (   0.4375000   0.1082532   0.9185586  )
       561           Au  tau( 561) = (   0.4375000   0.5412659   0.9185586  )
       562           Au  tau( 562) = (   0.5625000   0.1082532   0.9185586  )
       563           Au  tau( 563) = (   0.6875000   0.3247595   0.9185586  )
       564           Au  tau( 564) = (   0.8125000   0.3247595   0.9185586  )
       565           Au  tau( 565) = (   0.4375000   0.7577722   0.9185586  )
       566           Au  tau( 566) = (   0.5625000   0.7577722   0.9185586  )
       567           Au  tau( 567) = (   0.6875000   0.7577722   0.9185586  )
       568           Au  tau( 568) = (   0.8125000   0.5412659   0.9185586  )
       569           Au  tau( 569) = (   0.8125000   0.7577722   0.9185586  )
       570           Au  tau( 570) = (   0.9375000   0.5412659   0.9185586  )
       571           Au  tau( 571) = (   0.9375000   0.7577722   0.9185586  )
       572           Au  tau( 572) = (   0.1875000   0.7577722   0.9185586  )
       573           Au  tau( 573) = (   0.3125000   0.7577722   0.9185586  )
       574           Au  tau( 574) = (   0.5625000   0.5412659   0.9185586  )
       575           Au  tau( 575) = (   0.6875000   0.5412659   0.9185586  )
       576           Au  tau( 576) = (   0.9375000   0.3247595   0.9185586  )

     number of k points=     4  Marzari-Vanderbilt smearing, width (Ry)=  0.0500
                       cart. coord. in units 2pi/alat
        k(    1) = (   0.1666667   0.1924501   0.0000000), wk =   0.8888889
        k(    2) = (   0.1666667  -0.5773503   0.0000000), wk =   0.4444444
        k(    3) = (  -0.5000000   0.1924501   0.0000000), wk =   0.4444444
        k(    4) = (  -0.5000000  -0.5773503   0.0000000), wk =   0.2222222

     Dense  grid: 11401369 G-vectors     FFT dimensions: ( 270, 240, 360)

     Smooth grid:  3524293 G-vectors     FFT dimensions: ( 180, 160, 243)

     Estimated max dynamical RAM per process >       2.85 GB

     Estimated total dynamical RAM >    1095.52 GB

     Initial potential from superposition of free atoms

     starting charge 6329.31153, renormalised to 6336.00000

     negative rho (up, down):  1.536E+01 0.000E+00
     Starting wfcs are 5184 randomized atomic wfcs

     total cpu time spent up to now is      106.1 secs

     Self-consistent Calculation

     iteration #  1     ecut=    40.00 Ry     beta= 0.70
     Davidson diagonalization with overlap
     ethr =  1.00E-02,  avg # of iterations =  3.0

     Threshold (ethr) on eigenvalues was too large:
     Diagonalizing with lowered threshold

     Davidson diagonalization with overlap
     ethr =  3.34E-04,  avg # of iterations =  3.8

     negative rho (up, down):  1.461E+01 0.000E+00

     total cpu time spent up to now is      726.3 secs

     total energy              =  -58770.14116494 Ry
     estimated scf accuracy    <      25.28175377 Ry

     iteration #  2     ecut=    40.00 Ry     beta= 0.70
     Davidson diagonalization with overlap
     ethr =  3.99E-04,  avg # of iterations =  1.2

     negative rho (up, down):  1.543E+01 0.000E+00

     total cpu time spent up to now is     1102.7 secs

     total energy              =  -58771.29724834 Ry
     estimated scf accuracy    <      11.25985697 Ry

     iteration #  3     ecut=    40.00 Ry     beta= 0.70
     Davidson diagonalization with overlap
     ethr =  1.78E-04,  avg # of iterations =  2.0

     negative rho (up, down):  1.621E+01 0.000E+00

     total cpu time spent up to now is     1331.2 secs

     total energy              =  -58771.23022479 Ry
     estimated scf accuracy    <       6.59643711 Ry

     iteration #  4     ecut=    40.00 Ry     beta= 0.70
     Davidson diagonalization with overlap
     ethr =  1.04E-04,  avg # of iterations = 15.5

     negative rho (up, down):  1.619E+01 0.000E+00

     total cpu time spent up to now is     1625.1 secs

     total energy              =  -58771.12370829 Ry
     estimated scf accuracy    <       3.23508456 Ry

     iteration #  5     ecut=    40.00 Ry     beta= 0.70
     Davidson diagonalization with overlap
     ethr =  5.11E-05,  avg # of iterations = 18.2

     negative rho (up, down):  1.581E+01 0.000E+00

     total cpu time spent up to now is     2166.6 secs

     total energy              =  -58771.08210054 Ry
     estimated scf accuracy    <       1.97306149 Ry

     iteration #  6     ecut=    40.00 Ry     beta= 0.70
     Davidson diagonalization with overlap
     ethr =  3.11E-05,  avg # of iterations = 19.0

     negative rho (up, down):  1.584E+01 0.000E+00

     total cpu time spent up to now is     2713.2 secs

     total energy              =  -58771.02945764 Ry
     estimated scf accuracy    <       1.90236818 Ry

     iteration #  7     ecut=    40.00 Ry     beta= 0.70
     Davidson diagonalization with overlap
     ethr =  3.00E-05,  avg # of iterations =  8.2

     negative rho (up, down):  1.583E+01 0.000E+00

     total cpu time spent up to now is     2980.6 secs

     total energy              =  -58771.03288882 Ry
     estimated scf accuracy    <       1.95782460 Ry

     iteration #  8     ecut=    40.00 Ry     beta= 0.70
     Davidson diagonalization with overlap
     ethr =  3.00E-05,  avg # of iterations =  1.2

     negative rho (up, down):  1.585E+01 0.000E+00

     total cpu time spent up to now is     3222.2 secs

     total energy              =  -58770.83576749 Ry
     estimated scf accuracy    <       1.97133063 Ry

     iteration #  9     ecut=    40.00 Ry     beta= 0.70
     Davidson diagonalization with overlap
     ethr =  3.00E-05,  avg # of iterations = 14.0

     negative rho (up, down):  1.627E+01 0.000E+00

     total cpu time spent up to now is     3608.0 secs

     total energy              =  -58771.42074284 Ry
     estimated scf accuracy    <       2.10549203 Ry

     iteration # 10     ecut=    40.00 Ry     beta= 0.70
     Davidson diagonalization with overlap
     ethr =  3.00E-05,  avg # of iterations = 16.0

     negative rho (up, down):  1.634E+01 0.000E+00

     total cpu time spent up to now is     3942.9 secs

     total energy              =  -58771.84829366 Ry
     estimated scf accuracy    <       8.94104300 Ry

     iteration # 11     ecut=    40.00 Ry     beta= 0.70
     Davidson diagonalization with overlap
     ethr =  3.00E-05,  avg # of iterations =  4.8

     negative rho (up, down):  1.643E+01 0.000E+00

     total cpu time spent up to now is     4186.9 secs

     total energy              =  -58771.30483495 Ry
     estimated scf accuracy    <      13.64033207 Ry

     iteration # 12     ecut=    40.00 Ry     beta= 0.70
     Davidson diagonalization with overlap
     ethr =  3.00E-05,  avg # of iterations =  1.8

     negative rho (up, down):  1.667E+01 0.000E+00

     total cpu time spent up to now is     4419.4 secs

     total energy              =  -58771.31172250 Ry
     estimated scf accuracy    <       6.80755669 Ry

     iteration # 13     ecut=    40.00 Ry     beta= 0.70
     Davidson diagonalization with overlap
     ethr =  3.00E-05,  avg # of iterations =  2.0

     negative rho (up, down):  1.625E+01 0.000E+00

     total cpu time spent up to now is     4649.0 secs

     total energy              =  -58770.16474261 Ry
     estimated scf accuracy    <       6.33244126 Ry

     iteration # 14     ecut=    40.00 Ry     beta= 0.70
     Davidson diagonalization with overlap
     ethr =  3.00E-05,  avg # of iterations = 13.8

     negative rho (up, down):  1.608E+01 0.000E+00

     total cpu time spent up to now is     5047.9 secs

     total energy              =  -58770.90448860 Ry
     estimated scf accuracy    <       0.54548230 Ry

     iteration # 15     ecut=    40.00 Ry     beta= 0.70
     Davidson diagonalization with overlap
     c_bands:  1 eigenvalues not converged
     ethr =  8.61E-06,  avg # of iterations = 17.8

     negative rho (up, down):  1.626E+01 0.000E+00

     total cpu time spent up to now is     5349.0 secs

     total energy              =  -58770.95986449 Ry
     estimated scf accuracy    <       0.59856053 Ry

     iteration # 16     ecut=    40.00 Ry     beta= 0.70
     Davidson diagonalization with overlap
     ethr =  8.61E-06,  avg # of iterations = 15.8

     negative rho (up, down):  1.612E+01 0.000E+00

     total cpu time spent up to now is     5654.4 secs

     total energy              =  -58770.91279080 Ry
     estimated scf accuracy    <       0.76508961 Ry

     iteration # 17     ecut=    40.00 Ry     beta= 0.70
     Davidson diagonalization with overlap
     ethr =  8.61E-06,  avg # of iterations =  2.2

     negative rho (up, down):  1.597E+01 0.000E+00

     total cpu time spent up to now is     5888.9 secs

     total energy              =  -58770.87004735 Ry
     estimated scf accuracy    <       0.44682316 Ry

     iteration # 18     ecut=    40.00 Ry     beta= 0.70
     Davidson diagonalization with overlap
     ethr =  7.05E-06,  avg # of iterations =  6.0

     negative rho (up, down):  1.582E+01 0.000E+00

     total cpu time spent up to now is     6146.3 secs

     total energy              =  -58770.85102557 Ry
     estimated scf accuracy    <       0.23660814 Ry

     iteration # 19     ecut=    40.00 Ry     beta= 0.70
     Davidson diagonalization with overlap
     ethr =  3.73E-06,  avg # of iterations = 11.2

     negative rho (up, down):  1.574E+01 0.000E+00

     total cpu time spent up to now is     6431.2 secs

     total energy              =  -58770.85244452 Ry
     estimated scf accuracy    <       0.05865928 Ry

     iteration # 20     ecut=    40.00 Ry     beta= 0.70
     Davidson diagonalization with overlap
     ethr =  9.26E-07,  avg # of iterations = 14.0

     negative rho (up, down):  1.568E+01 0.000E+00

     total cpu time spent up to now is     6738.9 secs

     total energy              =  -58770.85210962 Ry
     estimated scf accuracy    <       0.01323232 Ry

     iteration # 21     ecut=    40.00 Ry     beta= 0.70
     Davidson diagonalization with overlap
     ethr =  2.09E-07,  avg # of iterations = 14.0

     negative rho (up, down):  1.567E+01 0.000E+00

     total cpu time spent up to now is     7067.5 secs

     total energy              =  -58770.85338491 Ry
     estimated scf accuracy    <       0.00049244 Ry

     iteration # 22     ecut=    40.00 Ry     beta= 0.70
     Davidson diagonalization with overlap
     ethr =  7.77E-09,  avg # of iterations =  5.0

     negative rho (up, down):  1.567E+01 0.000E+00

     total cpu time spent up to now is     7344.1 secs

     total energy              =  -58770.85354839 Ry
     estimated scf accuracy    <       0.00015001 Ry

     iteration # 23     ecut=    40.00 Ry     beta= 0.70
     Davidson diagonalization with overlap
     ethr =  2.37E-09,  avg # of iterations =  2.5

     negative rho (up, down):  1.567E+01 0.000E+00

     total cpu time spent up to now is     7582.5 secs

     total energy              =  -58770.85357543 Ry
     estimated scf accuracy    <       0.00001112 Ry

     iteration # 24     ecut=    40.00 Ry     beta= 0.70
     Davidson diagonalization with overlap
     ethr =  1.75E-10,  avg # of iterations =  4.0

     negative rho (up, down):  1.567E+01 0.000E+00

     total cpu time spent up to now is     7851.6 secs

     total energy              =  -58770.85358216 Ry
     estimated scf accuracy    <       0.00000950 Ry

     iteration # 25     ecut=    40.00 Ry     beta= 0.70
     Davidson diagonalization with overlap
     ethr =  1.50E-10,  avg # of iterations =  2.2

     negative rho (up, down):  1.567E+01 0.000E+00

     total cpu time spent up to now is     8094.6 secs

     total energy              =  -58770.85358370 Ry
     estimated scf accuracy    <       0.00000265 Ry

     iteration # 26     ecut=    40.00 Ry     beta= 0.70
     Davidson diagonalization with overlap
     ethr =  4.18E-11,  avg # of iterations =  3.0

     negative rho (up, down):  1.567E+01 0.000E+00

     total cpu time spent up to now is     8330.9 secs

     End of self-consistent calculation

          k = 0.1667 0.1925 0.0000 (440477 PWs)   bands (ev):

    -0.8131  -0.5877  -0.5141  -0.4715  -0.3682  -0.2965  -0.2498  -0.2264
    -0.1780  -0.0868  -0.0351  -0.0154   0.0253   0.0343   0.1018   0.1856
     0.2371   0.2426   0.2536   0.3061   0.3115   0.4509   0.4899   0.4983
     0.5169   0.5490   0.5639   0.5800   0.6013   0.6349   0.7096   0.7193
     0.7499   0.7751   0.7831   0.8162   0.8243   0.8360   0.8819   0.9221
     0.9339   0.9538   0.9648   0.9950   1.0078   1.0166   1.0197   1.0258
     1.0818   1.0908   1.1249   1.1387   1.1686   1.1952   1.2049   1.2158
     1.2462   1.2567   1.2642   1.3262   1.3385   1.3391   1.3530   1.3566
     1.3852   1.4017   1.4022   1.4230   1.4407   1.4433   1.4554   1.4597
     1.4636   1.4901   1.5056   1.5097   1.5406   1.5525   1.5571   1.5601
     1.5647   1.5682   1.5731   1.5750   1.5833   1.5897   1.5910   1.5991
     1.6034   1.6064   1.6081   1.6141   1.6193   1.6431   1.6469   1.6531
     1.6538   1.6631   1.6922   1.6935   1.6937   1.7079   1.7089   1.7227
     1.7253   1.7259   1.7268   1.7426   1.7515   1.7546   1.7554   1.7630
     1.7734   1.7751   1.7933   1.7974   1.8038   1.8166   1.8289   1.8298
     1.8299   1.8307   1.8326   1.8359   1.8381   1.8475   1.8504   1.8515
     1.8520   1.8534   1.8544   1.8554   1.8569   1.8580   1.8640   1.8681
     1.8811   1.8820   1.8896   1.8924   1.8934   1.8947   1.9101   1.9115
     1.9216   1.9267   1.9299   1.9309   1.9353   1.9391   1.9415   1.9441
     1.9453   1.9453   1.9474   1.9506   1.9644   1.9647   1.9684   1.9728
     1.9729   1.9842   1.9846   1.9863   1.9921   1.9971   1.9989   1.9996
     2.0082   2.0087   2.0093   2.0103   2.0132   2.0148   2.0216   2.0283
     2.0301   2.0335   2.0381   2.0381   2.0404   2.0425   2.0433   2.0465
     2.0558   2.0591   2.0656   2.0740   2.0843   2.0853   2.0861   2.0881
     2.0884   2.0944   2.0981   2.1026   2.1076   2.1095   2.1104   2.1112
     2.1128   2.1219   2.1225   2.1253   2.1270   2.1290   2.1324   2.1377
     2.1385   2.1386   2.1412   2.1439   2.1456   2.1465   2.1514   2.1518
     2.1576   2.1594   2.1615   2.1634   2.1655   2.1663   2.1683   2.1686
     2.1713   2.1762   2.1781   2.1823   2.1855   2.1960   2.1974   2.1982
     2.1984   2.2005   2.2041   2.2123   2.2149   2.2165   2.2186   2.2188
     2.2244   2.2256   2.2291   2.2301   2.2306   2.2312   2.2338   2.2341
     2.2355   2.2380   2.2414   2.2416   2.2427   2.2440   2.2443   2.2448
     2.2476   2.2484   2.2511   2.2589   2.2732   2.2773   2.2802   2.2805
     2.2885   2.2890   2.2905   2.2928   2.3018   2.3026   2.3036   2.3044
     2.3079   2.3079   2.3085   2.3098   2.3146   2.3159   2.3178   2.3179
     2.3193   2.3227   2.3252   2.3259   2.3261   2.3293   2.3317   2.3317
     2.3326   2.3336   2.3374   2.3381   2.3403   2.3432   2.3435   2.3437
     2.3448   2.3476   2.3493   2.3501   2.3548   2.3552   2.3557   2.3578
     2.3626   2.3652   2.3698   2.3699   2.3708   2.3754   2.3763   2.3806
     2.3809   2.3823   2.3831   2.3854   2.3914   2.3928   2.3990   2.4008
     2.4062   2.4079   2.4114   2.4117   2.4121   2.4161   2.4165   2.4222
     2.4229   2.4261   2.4261   2.4263   2.4280   2.4282   2.4283   2.4300
     2.4304   2.4305   2.4335   2.4363   2.4392   2.4394   2.4405   2.4481
     2.4492   2.4500   2.4514   2.4521   2.4561   2.4601   2.4618   2.4664
     2.4669   2.4675   2.4684   2.4698   2.4742   2.4756   2.4757   2.4764
     2.4835   2.4836   2.4850   2.4855   2.4876   2.4885   2.4888   2.4952
     2.4984   2.5037   2.5086   2.5094   2.5107   2.5134   2.5134   2.5149
     2.5195   2.5201   2.5243   2.5289   2.5321   2.5356   2.5369   2.5374
     2.5378   2.5392   2.5429   2.5461   2.5472   2.5475   2.5511   2.5520
     2.5532   2.5554   2.5578   2.5600   2.5626   2.5641   2.5645   2.5679
     2.5679   2.5681   2.5686   2.5740   2.5755   2.5775   2.5776   2.5799
     2.5800   2.5811   2.5824   2.5866   2.5879   2.5903   2.5914   2.5922
     2.5926   2.5931   2.5943   2.5961   2.5980   2.5984   2.5984   2.5990
     2.6020   2.6071   2.6139   2.6142   2.6168   2.6190   2.6205   2.6206
     2.6209   2.6232   2.6337   2.6350   2.6414   2.6431   2.6452   2.6452
     2.6539   2.6548   2.6573   2.6589   2.6598   2.6612   2.6635   2.6636
     2.6671   2.6682   2.6686   2.6699   2.6729   2.6782   2.6790   2.6804
     2.6822   2.6823   2.6845   2.6894   2.6914   2.6931   2.6940   2.6978
     2.6987   2.7011   2.7039   2.7046   2.7048   2.7084   2.7103   2.7147
     2.7162   2.7164   2.7196   2.7197   2.7234   2.7236   2.7266   2.7282
     2.7306   2.7327   2.7339   2.7340   2.7428   2.7449   2.7474   2.7540
     2.7549   2.7571   2.7589   2.7599   2.7642   2.7656   2.7657   2.7665
     2.7674   2.7688   2.7716   2.7724   2.7745   2.7747   2.7755   2.7780
     2.7808   2.7809   2.7826   2.7840   2.7847   2.7853   2.7853   2.7882
     2.7905   2.7926   2.7936   2.7955   2.8060   2.8064   2.8066   2.8070
     2.8079   2.8122   2.8123   2.8134   2.8146   2.8146   2.8172   2.8191
     2.8201   2.8211   2.8245   2.8343   2.8365   2.8369   2.8465   2.8488
     2.8490   2.8507   2.8531   2.8552   2.8553   2.8570   2.8572   2.8587
     2.8593   2.8599   2.8607   2.8677   2.8719   2.8753   2.8757   2.8789
     2.8831   2.8850   2.8933   2.8936   2.8947   2.8980   2.8984   2.9031
     2.9116   2.9117   2.9152   2.9180   2.9195   2.9207   2.9213   2.9227
     2.9230   2.9293   2.9311   2.9324   2.9348   2.9369   2.9372   2.9402
     2.9422   2.9432   2.9477   2.9502   2.9536   2.9563   2.9566   2.9590
     2.9593   2.9597   2.9611   2.9792   2.9793   2.9839   2.9840   2.9867
     2.9891   2.9973   2.9982   3.0085   3.0111   3.0218   3.0236   3.0438
     3.0438   3.0496   3.0501   3.0560   3.0562   3.0564   3.0591   3.0636
     3.0660   3.0674   3.0679   3.0689   3.0693   3.0696   3.0725   3.0776
     3.0802   3.0813   3.0826   3.0833   3.0833   3.0848   3.0850   3.0932
     3.0933   3.0965   3.1028   3.1048   3.1072   3.1108   3.1116   3.1118
     3.1140   3.1158   3.1169   3.1198   3.1220   3.1289   3.1306   3.1330
     3.1377   3.1391   3.1399   3.1426   3.1428   3.1478   3.1520   3.1537
     3.1562   3.1618   3.1629   3.1654   3.1673   3.1694   3.1694   3.1759
     3.1759   3.1771   3.1787   3.1800   3.1809   3.1811   3.1868   3.1880
     3.1907   3.1922   3.1927   3.1939   3.1945   3.1964   3.1965   3.1987
     3.1991   3.2020   3.2020   3.2063   3.2086   3.2087   3.2122   3.2138
     3.2152   3.2231   3.2248   3.2252   3.2281   3.2301   3.2317   3.2333
     3.2335   3.2371   3.2416   3.2451   3.2459   3.2475   3.2505   3.2557
     3.2566   3.2613   3.2627   3.2638   3.2672   3.2742   3.2792   3.2798
     3.2799   3.2816   3.2819   3.2841   3.2883   3.2905   3.2909   3.2912
     3.2925   3.2930   3.2933   3.2945   3.3000   3.3019   3.3060   3.3070
     3.3105   3.3106   3.3113   3.3114   3.3126   3.3158   3.3165   3.3177
     3.3216   3.3227   3.3243   3.3244   3.3248   3.3251   3.3261   3.3271
     3.3275   3.3290   3.3304   3.3317   3.3320   3.3332   3.3364   3.3373
     3.3418   3.3438   3.3473   3.3480   3.3491   3.3497   3.3505   3.3515
     3.3538   3.3549   3.3550   3.3605   3.3605   3.3684   3.3693   3.3731
     3.3731   3.3735   3.3756   3.3757   3.3777   3.3790   3.3795   3.3816
     3.3818   3.3839   3.3982   3.4048   3.4054   3.4060   3.4065   3.4094
     3.4117   3.4118   3.4137   3.4153   3.4160   3.4164   3.4212   3.4217
     3.4262   3.4271   3.4276   3.4309   3.4328   3.4345   3.4349   3.4387
     3.4388   3.4411   3.4413   3.4421   3.4476   3.4482   3.4487   3.4494
     3.4529   3.4539   3.4592   3.4592   3.4630   3.4632   3.4636   3.4641
     3.4647   3.4654   3.4690   3.4694   3.4730   3.4747   3.4748   3.4755
     3.4757   3.4764   3.4787   3.4788   3.4823   3.4824   3.4856   3.4859
     3.4859   3.4861   3.4870   3.4877   3.4909   3.4918   3.4960   3.4973
     3.5021   3.5061   3.5066   3.5070   3.5089   3.5105   3.5119   3.5123
     3.5133   3.5134   3.5148   3.5149   3.5183   3.5185   3.5188   3.5210
     3.5222   3.5266   3.5318   3.5332   3.5358   3.5363   3.5380   3.5386
     3.5388   3.5395   3.5435   3.5478   3.5505   3.5510   3.5536   3.5546
     3.5575   3.5578   3.5627   3.5659   3.5668   3.5688   3.5708   3.5735
     3.5746   3.5761   3.5763   3.5790   3.5800   3.5821   3.5849   3.5851
     3.5854   3.5858   3.5867   3.5906   3.5918   3.5920   3.5933   3.5937
     3.5950   3.5970   3.5981   3.6005   3.6015   3.6016   3.6017   3.6074
     3.6082   3.6088   3.6104   3.6147   3.6197   3.6209   3.6210   3.6237
     3.6242   3.6245   3.6251   3.6258   3.6262   3.6296   3.6324   3.6439
     3.6444   3.6446   3.6467   3.6469   3.6478   3.6480   3.6485   3.6486
     3.6517   3.6567   3.6593   3.6610   3.6618   3.6644   3.6648   3.6663
     3.6671   3.6679   3.6705   3.6741   3.6789   3.6799   3.6799   3.6845
     3.6853   3.6856   3.6886   3.6906   3.6922   3.6932   3.6939   3.6942
     3.6949   3.6960   3.6976   3.6989   3.7029   3.7042   3.7090   3.7114
     3.7150   3.7188   3.7199   3.7208   3.7210   3.7270   3.7303   3.7318
     3.7325   3.7342   3.7347   3.7435   3.7442   3.7452   3.7457   3.7465
     3.7493   3.7502   3.7539   3.7571   3.7573   3.7578   3.7580   3.7591
     3.7593   3.7599   3.7618   3.7655   3.7655   3.7713   3.7725   3.7730
     3.7742   3.7758   3.7758   3.7768   3.7787   3.7851   3.7857   3.7861
     3.7875   3.7883   3.7901   3.7903   3.7919   3.7939   3.7958   3.8013
     3.8049   3.8067   3.8098   3.8106   3.8138   3.8138   3.8138   3.8181
     3.8186   3.8187   3.8194   3.8231   3.8251   3.8265   3.8280   3.8331
     3.8356   3.8358   3.8365   3.8403   3.8433   3.8465   3.8484   3.8491
     3.8492   3.8501   3.8515   3.8523   3.8524   3.8527   3.8554   3.8555
     3.8562   3.8570   3.8574   3.8585   3.8603   3.8612   3.8645   3.8648
     3.8651   3.8661   3.8676   3.8680   3.8695   3.8696   3.8734   3.8736
     3.8749   3.8764   3.8866   3.8902   3.8913   3.8917   3.8920   3.8927
     3.8934   3.8939   3.8951   3.8951   3.8961   3.8973   3.8980   3.9002
     3.9016   3.9019   3.9042   3.9071   3.9078   3.9089   3.9100   3.9154
     3.9154   3.9164   3.9191   3.9195   3.9199   3.9205   3.9213   3.9224
     3.9233   3.9244   3.9259   3.9260   3.9277   3.9289   3.9306   3.9326
     3.9340   3.9344   3.9346   3.9367   3.9375   3.9385   3.9387   3.9407
     3.9446   3.9486   3.9493   3.9528   3.9537   3.9547   3.9548   3.9551
     3.9567   3.9609   3.9634   3.9640   3.9646   3.9646   3.9675   3.9689
     3.9691   3.9698   3.9708   3.9708   3.9722   3.9756   3.9768   3.9783
     3.9798   3.9800   3.9801   3.9834   3.9857   3.9863   3.9876   3.9915
     3.9922   3.9939   3.9942   3.9942   3.9961   3.9982   3.9984   4.0046
     4.0055   4.0055   4.0116   4.0120   4.0120   4.0124   4.0152   4.0154
     4.0158   4.0161   4.0192   4.0208   4.0211   4.0216   4.0234   4.0240
     4.0253   4.0260   4.0264   4.0268   4.0282   4.0285   4.0296   4.0327
     4.0349   4.0367   4.0389   4.0390   4.0416   4.0424   4.0442   4.0455
     4.0462   4.0463   4.0475   4.0500   4.0513   4.0520   4.0529   4.0532
     4.0545   4.0550   4.0578   4.0586   4.0601   4.0631   4.0633   4.0637
     4.0643   4.0661   4.0670   4.0681   4.0684   4.0695   4.0701   4.0708
     4.0730   4.0731   4.0751   4.0762   4.0785   4.0788   4.0799   4.0827
     4.0851   4.0856   4.0866   4.0900   4.0911   4.0914   4.0921   4.0952
     4.0967   4.0977   4.0984   4.0991   4.1006   4.1007   4.1020   4.1048
     4.1065   4.1071   4.1078   4.1082   4.1092   4.1095   4.1100   4.1139
     4.1140   4.1145   4.1174   4.1176   4.1196   4.1201   4.1245   4.1250
     4.1253   4.1295   4.1296   4.1316   4.1335   4.1346   4.1350   4.1353
     4.1356   4.1367   4.1383   4.1384   4.1391   4.1392   4.1398   4.1410
     4.1418   4.1420   4.1423   4.1445   4.1496   4.1498   4.1501   4.1546
     4.1555   4.1565   4.1568   4.1583   4.1585   4.1593   4.1613   4.1622
     4.1623   4.1637   4.1643   4.1648   4.1648   4.1653   4.1655   4.1663
     4.1672   4.1693   4.1701   4.1709   4.1716   4.1721   4.1721   4.1742
     4.1751   4.1752   4.1753   4.1757   4.1781   4.1784   4.1810   4.1814
     4.1815   4.1830   4.1830   4.1830   4.1853   4.1869   4.1872   4.1876
     4.1888   4.1904   4.1905   4.1908   4.1919   4.1934   4.1934   4.1939
     4.1949   4.1965   4.1970   4.1986   4.1993   4.1996   4.1997   4.2002
     4.2005   4.2006   4.2013   4.2019   4.2037   4.2038   4.2049   4.2056
     4.2065   4.2100   4.2116   4.2139   4.2145   4.2150   4.2160   4.2181
     4.2183   4.2185   4.2207   4.2246   4.2248   4.2263   4.2270   4.2307
     4.2315   4.2317   4.2317   4.2335   4.2356   4.2361   4.2367   4.2371
     4.2376   4.2386   4.2403   4.2441   4.2450   4.2465   4.2485   4.2501
     4.2527   4.2535   4.2541   4.2547   4.2558   4.2564   4.2574   4.2577
     4.2578   4.2593   4.2604   4.2610   4.2611   4.2618   4.2624   4.2633
     4.2642   4.2643   4.2645   4.2645   4.2649   4.2652   4.2676   4.2691
     4.2691   4.2699   4.2738   4.2744   4.2756   4.2778   4.2783   4.2792
     4.2793   4.2822   4.2825   4.2885   4.2894   4.2895   4.2895   4.2938
     4.2939   4.2948   4.2949   4.2959   4.2966   4.3001   4.3003   4.3026
     4.3056   4.3060   4.3092   4.3099   4.3111   4.3135   4.3136   4.3144
     4.3146   4.3151   4.3174   4.3183   4.3217   4.3222   4.3222   4.3240
     4.3240   4.3263   4.3273   4.3278   4.3319   4.3328   4.3350   4.3382
     4.3390   4.3393   4.3406   4.3436   4.3445   4.3479   4.3496   4.3503
     4.3535   4.3558   4.3565   4.3577   4.3580   4.3593   4.3624   4.3624
     4.3671   4.3687   4.3689   4.3691   4.3694   4.3703   4.3707   4.3716
     4.3718   4.3760   4.3778   4.3788   4.3805   4.3809   4.3811   4.3814
     4.3821   4.3826   4.3836   4.3851   4.3892   4.3897   4.3897   4.3899
     4.3907   4.3926   4.3936   4.3943   4.3983   4.3994   4.3994   4.4012
     4.4015   4.4031   4.4063   4.4064   4.4079   4.4093   4.4101   4.4109
     4.4114   4.4129   4.4215   4.4227   4.4253   4.4264   4.4265   4.4284
     4.4294   4.4296   4.4313   4.4333   4.4342   4.4362   4.4376   4.4386
     4.4398   4.4413   4.4419   4.4433   4.4441   4.4467   4.4490   4.4511
     4.4513   4.4524   4.4575   4.4589   4.4614   4.4623   4.4623   4.4629
     4.4653   4.4659   4.4665   4.4685   4.4687   4.4709   4.4711   4.4714
     4.4750   4.4780   4.4813   4.4814   4.4814   4.4840   4.4853   4.4874
     4.4905   4.4909   4.4915   4.4933   4.4938   4.4954   4.4955   4.4990
     4.5033   4.5043   4.5048   4.5082   4.5096   4.5126   4.5151   4.5187
     4.5196   4.5196   4.5222   4.5248   4.5278   4.5280   4.5296   4.5302
     4.5334   4.5341   4.5344   4.5354   4.5359   4.5359   4.5361   4.5381
     4.5405   4.5437   4.5481   4.5482   4.5498   4.5498   4.5540   4.5551
     4.5558   4.5610   4.5636   4.5659   4.5661   4.5683   4.5686   4.5742
     4.5766   4.5768   4.5776   4.5786   4.5787   4.5788   4.5803   4.5826
     4.5841   4.5862   4.5865   4.5902   4.5907   4.5913   4.5949   4.5954
     4.5972   4.5979   4.6011   4.6060   4.6077   4.6077   4.6093   4.6093
     4.6121   4.6149   4.6157   4.6165   4.6184   4.6217   4.6225   4.6277
     4.6306   4.6324   4.6324   4.6325   4.6360   4.6395   4.6433   4.6448
     4.6455   4.6474   4.6520   4.6540   4.6543   4.6565   4.6590   4.6619
     4.6620   4.6630   4.6643   4.6662   4.6667   4.6692   4.6718   4.6738
     4.6743   4.6792   4.6802   4.6840   4.6843   4.6858   4.6872   4.6878
     4.6915   4.6916   4.6925   4.6959   4.6973   4.6989   4.6990   4.6990
     4.7017   4.7018   4.7035   4.7083   4.7090   4.7119   4.7143   4.7152
     4.7174   4.7182   4.7188   4.7193   4.7209   4.7210   4.7250   4.7254
     4.7257   4.7270   4.7306   4.7317   4.7318   4.7353   4.7372   4.7445
     4.7455   4.7465   4.7478   4.7488   4.7513   4.7527   4.7554   4.7570
     4.7579   4.7605   4.7611   4.7628   4.7644   4.7648   4.7698   4.7719
     4.7726   4.7727   4.7756   4.7787   4.7841   4.7851   4.7915   4.7948
     4.7973   4.8012   4.8057   4.8102   4.8103   4.8104   4.8111   4.8113
     4.8121   4.8135   4.8149   4.8156   4.8175   4.8209   4.8217   4.8221
     4.8233   4.8237   4.8240   4.8253   4.8259   4.8274   4.8280   4.8287
     4.8299   4.8303   4.8353   4.8402   4.8421   4.8451   4.8458   4.8473
     4.8495   4.8495   4.8506   4.8531   4.8556   4.8570   4.8584   4.8594
     4.8613   4.8658   4.8700   4.8716   4.8719   4.8721   4.8737   4.8765
     4.8785   4.8790   4.8798   4.8809   4.8811   4.8819   4.8833   4.8857
     4.8882   4.8889   4.8917   4.8944   4.8950   4.8960   4.8989   4.9009
     4.9026   4.9027   4.9042   4.9055   4.9065   4.9075   4.9082   4.9093
     4.9098   4.9102   4.9105   4.9116   4.9122   4.9125   4.9183   4.9235
     4.9251   4.9262   4.9273   4.9277   4.9297   4.9352   4.9405   4.9411
     4.9420   4.9423   4.9462   4.9465   4.9474   4.9486   4.9504   4.9532
     4.9541   4.9551   4.9562   4.9566   4.9584   4.9595   4.9598   4.9618
     4.9632   4.9646   4.9687   4.9710   4.9716   4.9722   4.9729   4.9750
     4.9773   4.9776   4.9809   4.9811   4.9812   4.9818   4.9822   4.9835
     4.9897   4.9912   4.9912   4.9929   4.9956   4.9987   4.9989   5.0011
     5.0013   5.0017   5.0020   5.0039   5.0064   5.0076   5.0081   5.0088
     5.0111   5.0116   5.0120   5.0127   5.0145   5.0165   5.0171   5.0190
     5.0227   5.0247   5.0268   5.0292   5.0294   5.0298   5.0305   5.0312
     5.0315   5.0339   5.0340   5.0349   5.0351   5.0354   5.0372   5.0375
     5.0383   5.0422   5.0456   5.0463   5.0470   5.0537   5.0542   5.0556
     5.0564   5.0585   5.0604   5.0605   5.0630   5.0688   5.0695   5.0718
     5.0732   5.0742   5.0753   5.0782   5.0796   5.0820   5.0843   5.0844
     5.0850   5.0854   5.0864   5.0880   5.0934   5.0944   5.0946   5.0991
     5.0994   5.1036   5.1086   5.1093   5.1106   5.1114   5.1154   5.1174
     5.1187   5.1191   5.1203   5.1210   5.1223   5.1236   5.1242   5.1279
     5.1291   5.1314   5.1334   5.1350   5.1352   5.1377   5.1383   5.1398
     5.1404   5.1417   5.1421   5.1427   5.1484   5.1485   5.1511   5.1512
     5.1518   5.1538   5.1552   5.1597   5.1602   5.1609   5.1617   5.1731
     5.1784   5.1794   5.1802   5.1813   5.1816   5.1825   5.1833   5.1852
     5.1876   5.1879   5.1883   5.1884   5.1886   5.1899   5.1900   5.1906
     5.1907   5.1918   5.1929   5.1933   5.1991   5.1997   5.2000   5.2004
     5.2010   5.2012   5.2016   5.2042   5.2069   5.2126   5.2158   5.2159
     5.2189   5.2219   5.2227   5.2229   5.2234   5.2241   5.2243   5.2248
     5.2261   5.2284   5.2291   5.2293   5.2310   5.2315   5.2315   5.2319
     5.2361   5.2362   5.2381   5.2384   5.2389   5.2390   5.2401   5.2408
     5.2423   5.2444   5.2447   5.2461   5.2465   5.2495   5.2502   5.2504
     5.2510   5.2561   5.2584   5.2590   5.2591   5.2605   5.2613   5.2620
     5.2644   5.2648   5.2661   5.2673   5.2677   5.2687   5.2687   5.2702
     5.2731   5.2739   5.2740   5.2744   5.2744   5.2753   5.2767   5.2769
     5.2796   5.2828   5.2833   5.2853   5.2857   5.2857   5.2872   5.2885
     5.2961   5.2970   5.2983   5.2993   5.3004   5.3051   5.3119   5.3153
     5.3161   5.3188   5.3197   5.3218   5.3230   5.3249   5.3264   5.3268
     5.3272   5.3281   5.3307   5.3310   5.3320   5.3320   5.3342   5.3350
     5.3361   5.3370   5.3381   5.3401   5.3443   5.3445   5.3471   5.3487
     5.3491   5.3510   5.3515   5.3520   5.3521   5.3536   5.3543   5.3555
     5.3568   5.3580   5.3588   5.3589   5.3606   5.3611   5.3629   5.3641
     5.3671   5.3687   5.3693   5.3729   5.3744   5.3751   5.3751   5.3760
     5.3761   5.3766   5.3788   5.3795   5.3810   5.3820   5.3876   5.3882
     5.3896   5.3899   5.3914   5.3931   5.3936   5.3937   5.3950   5.3950
     5.3987   5.4027   5.4033   5.4064   5.4064   5.4084   5.4091   5.4129
     5.4133   5.4139   5.4166   5.4187   5.4190   5.4197   5.4211   5.4239
     5.4279   5.4293   5.4298   5.4314   5.4315   5.4317   5.4328   5.4341
     5.4351   5.4377   5.4396   5.4442   5.4453   5.4460   5.4476   5.4507
     5.4518   5.4525   5.4533   5.4533   5.4562   5.4576   5.4580   5.4591
     5.4606   5.4614   5.4623   5.4668   5.4682   5.4727   5.4741   5.4744
     5.4745   5.4755   5.4757   5.4783   5.4783   5.4791   5.4817   5.4833
[...]
     atom  346 type  1   force =     0.00000244   -0.00019592    0.00055461
     atom  347 type  1   force =    -0.00000244   -0.00019592    0.00055461
     atom  348 type  1   force =    -0.00000179   -0.00019476    0.00055483
     atom  349 type  1   force =     0.00000170   -0.00019472    0.00055485
     atom  350 type  1   force =     0.00000170   -0.00019479    0.00055481
     atom  351 type  1   force =     0.00000242   -0.00019584    0.00055457
     atom  352 type  1   force =     0.00000239   -0.00019589    0.00055451
     atom  353 type  1   force =     0.00000000    0.00045459    0.00052742
     atom  354 type  1   force =     0.00000000    0.00045454    0.00052732
     atom  355 type  1   force =    -0.00000325    0.00045546    0.00052750
     atom  356 type  1   force =    -0.00000320    0.00045545    0.00052738
     atom  357 type  1   force =     0.00000009    0.00045486    0.00052690
     atom  358 type  1   force =     0.00000335    0.00045545    0.00052758
     atom  359 type  1   force =     0.00000000    0.00045461    0.00052752
     atom  360 type  1   force =    -0.00000235   -0.00028851    0.00075457
     atom  361 type  1   force =    -0.00000232   -0.00028863    0.00075561
     atom  362 type  1   force =     0.00000248   -0.00028861    0.00075564
     atom  363 type  1   force =     0.00000000    0.00045458    0.00052741
     atom  364 type  1   force =    -0.00000325    0.00045548    0.00052741
     atom  365 type  1   force =    -0.00000325    0.00045542    0.00052747
     atom  366 type  1   force =     0.00000009    0.00045487    0.00052682
     atom  367 type  1   force =     0.00000007    0.00045488    0.00052684
     atom  368 type  1   force =     0.00000335    0.00045548    0.00052752
     atom  369 type  1   force =     0.00000334    0.00045542    0.00052751
     atom  370 type  1   force =     0.00000000    0.00045457    0.00052750
     atom  371 type  1   force =     0.00000000    0.00045458    0.00052747
     atom  372 type  1   force =     0.00000000    0.00045455    0.00052748
     atom  373 type  1   force =    -0.00000336    0.00045545    0.00052752
     atom  374 type  1   force =    -0.00000335    0.00045548    0.00052752
     atom  375 type  1   force =    -0.00000334    0.00045542    0.00052751
     atom  376 type  1   force =    -0.00000008    0.00045488    0.00052684
     atom  377 type  1   force =    -0.00000009    0.00045487    0.00052682
     atom  378 type  1   force =     0.00000325    0.00045546    0.00052750
     atom  379 type  1   force =     0.00000320    0.00045545    0.00052738
     atom  380 type  1   force =     0.00000325    0.00045548    0.00052741
     atom  381 type  1   force =    -0.00000235   -0.00028844    0.00075457
     atom  382 type  1   force =    -0.00000235   -0.00028846    0.00075464
     atom  383 type  1   force =    -0.00000237   -0.00028859    0.00075468
     atom  384 type  1   force =    -0.00000232   -0.00028860    0.00075558
     atom  385 type  1   force =    -0.00000235   -0.00028860    0.00075563
     atom  386 type  1   force =    -0.00000235   -0.00028869    0.00075560
     atom  387 type  1   force =     0.00000250   -0.00028861    0.00075567
     atom  388 type  1   force =     0.00000249   -0.00028860    0.00075563
     atom  389 type  1   force =     0.00000248   -0.00028869    0.00075569
     atom  390 type  1   force =     0.00000242   -0.00028846    0.00075473
     atom  391 type  1   force =     0.00000243   -0.00028845    0.00075470
     atom  392 type  1   force =     0.00000243   -0.00028847    0.00075472
     atom  393 type  1   force =     0.00000240   -0.00028852    0.00075471
     atom  394 type  1   force =    -0.00000242   -0.00028846    0.00075473
     atom  395 type  1   force =    -0.00000243   -0.00028845    0.00075470
     atom  396 type  1   force =    -0.00000243   -0.00028847    0.00075472
     atom  397 type  1   force =    -0.00000248   -0.00028861    0.00075564
     atom  398 type  1   force =    -0.00000250   -0.00028861    0.00075567
     atom  399 type  1   force =    -0.00000249   -0.00028860    0.00075563
     atom  400 type  1   force =     0.00000232   -0.00028863    0.00075561
     atom  401 type  1   force =     0.00000232   -0.00028860    0.00075558
     atom  402 type  1   force =     0.00000235   -0.00028860    0.00075563
     atom  403 type  1   force =     0.00000235   -0.00028851    0.00075457
     atom  404 type  1   force =     0.00000235   -0.00028844    0.00075457
     atom  405 type  1   force =     0.00000000    0.00045461    0.00052736
     atom  406 type  1   force =     0.00000008    0.00045488    0.00052684
     atom  407 type  1   force =     0.00000336    0.00045545    0.00052752
     atom  408 type  1   force =    -0.00000335    0.00045545    0.00052758
     atom  409 type  1   force =    -0.00000009    0.00045486    0.00052690
     atom  410 type  1   force =    -0.00000240   -0.00028852    0.00075471
     atom  411 type  1   force =    -0.00000248   -0.00028869    0.00075569
     atom  412 type  1   force =     0.00000235   -0.00028846    0.00075464
     atom  413 type  1   force =    -0.00000007    0.00045488    0.00052684
     atom  414 type  1   force =     0.00000325    0.00045542    0.00052747
     atom  415 type  1   force =     0.00000235   -0.00028869    0.00075560
     atom  416 type  1   force =     0.00000237   -0.00028859    0.00075468
     atom  417 type  1   force =    -0.00000160   -0.00056105    0.00388760
     atom  418 type  1   force =    -0.00000094   -0.00056150    0.00388710
     atom  419 type  1   force =     0.00000123   -0.00056151    0.00388721
     atom  420 type  1   force =     0.00000170   -0.00056125    0.00388786
     atom  421 type  1   force =    -0.00000170   -0.00056125    0.00388786
     atom  422 type  1   force =    -0.00000125   -0.00056167    0.00388717
     atom  423 type  1   force =     0.00000094   -0.00056173    0.00388702
     atom  424 type  1   force =     0.00000159   -0.00056136    0.00388754
     atom  425 type  1   force =    -0.00000252    0.00053542   -0.00452904
     atom  426 type  1   force =     0.00000016    0.00053657   -0.00452942
     atom  427 type  1   force =     0.00000274    0.00053549   -0.00452891
     atom  428 type  1   force =     0.00000000    0.00053448   -0.00452824
     atom  429 type  1   force =    -0.00000273    0.00053532   -0.00452889
     atom  430 type  1   force =    -0.00000020    0.00053636   -0.00452950
     atom  431 type  1   force =     0.00000249    0.00053530   -0.00452915
     atom  432 type  1   force =    -0.00000159   -0.00056136    0.00388754
     atom  433 type  1   force =    -0.00000155   -0.00056121    0.00388749
     atom  434 type  1   force =    -0.00000161   -0.00056116    0.00388768
     atom  435 type  1   force =    -0.00000094   -0.00056173    0.00388702
     atom  436 type  1   force =    -0.00000091   -0.00056164    0.00388704
     atom  437 type  1   force =     0.00000123   -0.00056168    0.00388720
     atom  438 type  1   force =     0.00000125   -0.00056167    0.00388717
     atom  439 type  1   force =     0.00000169   -0.00056127    0.00388782
     atom  440 type  1   force =     0.00000168   -0.00056113    0.00388788
     atom  441 type  1   force =    -0.00000169   -0.00056127    0.00388782
     atom  442 type  1   force =    -0.00000123   -0.00056168    0.00388720
     atom  443 type  1   force =     0.00000091   -0.00056164    0.00388704
     atom  444 type  1   force =    -0.00000249    0.00053530   -0.00452915
     atom  445 type  1   force =    -0.00000248    0.00053552   -0.00452916
     atom  446 type  1   force =    -0.00000251    0.00053538   -0.00452907
     atom  447 type  1   force =     0.00000020    0.00053636   -0.00452950
     atom  448 type  1   force =     0.00000009    0.00053650   -0.00452941
     atom  449 type  1   force =     0.00000273    0.00053532   -0.00452889
     atom  450 type  1   force =     0.00000268    0.00053537   -0.00452886
     atom  451 type  1   force =     0.00000000    0.00053437   -0.00452835
     atom  452 type  1   force =     0.00000000    0.00053440   -0.00452831
     atom  453 type  1   force =    -0.00000274    0.00053549   -0.00452891
     atom  454 type  1   force =    -0.00000016    0.00053657   -0.00452942
     atom  455 type  1   force =     0.00000248    0.00053552   -0.00452916
     atom  456 type  1   force =     0.00000000    0.00053429   -0.00452871
     atom  457 type  1   force =    -0.00000099   -0.00056161    0.00388717
     atom  458 type  1   force =     0.00000119   -0.00056158    0.00388722
     atom  459 type  1   force =     0.00000166   -0.00056118    0.00388783
     atom  460 type  1   force =    -0.00000168   -0.00056113    0.00388788
     atom  461 type  1   force =    -0.00000166   -0.00056118    0.00388783
     atom  462 type  1   force =    -0.00000123   -0.00056151    0.00388721
     atom  463 type  1   force =    -0.00000119   -0.00056158    0.00388722
     atom  464 type  1   force =     0.00000094   -0.00056150    0.00388710
     atom  465 type  1   force =     0.00000099   -0.00056161    0.00388717
     atom  466 type  1   force =     0.00000155   -0.00056121    0.00388749
     atom  467 type  1   force =     0.00000160   -0.00056105    0.00388760
     atom  468 type  1   force =     0.00000161   -0.00056116    0.00388768
     atom  469 type  1   force =     0.00000012    0.00053642   -0.00452943
     atom  470 type  1   force =     0.00000267    0.00053538   -0.00452887
     atom  471 type  1   force =     0.00000000    0.00053442   -0.00452823
     atom  472 type  1   force =    -0.00000268    0.00053537   -0.00452886
     atom  473 type  1   force =    -0.00000267    0.00053538   -0.00452887
     atom  474 type  1   force =    -0.00000009    0.00053650   -0.00452941
     atom  475 type  1   force =    -0.00000012    0.00053642   -0.00452943
     atom  476 type  1   force =     0.00000252    0.00053542   -0.00452904
     atom  477 type  1   force =     0.00000251    0.00053538   -0.00452907
     atom  478 type  1   force =     0.00000000    0.00053454   -0.00452871
     atom  479 type  1   force =     0.00000000    0.00053446   -0.00452859
     atom  480 type  1   force =     0.00000000    0.00053437   -0.00452848
     atom  481 type  1   force =    -0.00000239   -0.00336308    0.01657900
     atom  482 type  1   force =     0.00000026   -0.00336343    0.01657874
     atom  483 type  1   force =     0.00000284   -0.00336318    0.01657934
     atom  484 type  1   force =     0.00000000   -0.00336273    0.01658110
     atom  485 type  1   force =    -0.00000284   -0.00336318    0.01657934
     atom  486 type  1   force =    -0.00000027   -0.00336353    0.01657837
     atom  487 type  1   force =     0.00000240   -0.00336345    0.01657863
     atom  488 type  1   force =     0.00000000   -0.00336293    0.01658039
     atom  489 type  1   force =    -0.00000120    0.00160704    0.00967288
     atom  490 type  1   force =    -0.00000096    0.00160823    0.00966958
     atom  491 type  1   force =     0.00000147    0.00160821    0.00966987
     atom  492 type  1   force =     0.00000140    0.00160700    0.00967320
     atom  493 type  1   force =    -0.00000140    0.00160698    0.00967305
     atom  494 type  1   force =    -0.00000156    0.00160808    0.00966970
     atom  495 type  1   force =     0.00000094    0.00160811    0.00966943
     atom  496 type  1   force =    -0.00000240   -0.00336345    0.01657863
     atom  497 type  1   force =    -0.00000228   -0.00336311    0.01657878
     atom  498 type  1   force =    -0.00000244   -0.00336332    0.01657910
     atom  499 type  1   force =     0.00000027   -0.00336353    0.01657837
     atom  500 type  1   force =     0.00000027   -0.00336332    0.01657856
     atom  501 type  1   force =     0.00000282   -0.00336322    0.01657907
     atom  502 type  1   force =     0.00000279   -0.00336323    0.01657940
     atom  503 type  1   force =     0.00000000   -0.00336281    0.01658083
     atom  504 type  1   force =     0.00000000   -0.00336283    0.01658113
     atom  505 type  1   force =    -0.00000282   -0.00336322    0.01657907
     atom  506 type  1   force =    -0.00000027   -0.00336332    0.01657856
     atom  507 type  1   force =     0.00000228   -0.00336311    0.01657878
     atom  508 type  1   force =    -0.00000115    0.00160696    0.00967247
     atom  509 type  1   force =    -0.00000116    0.00160711    0.00967258
     atom  510 type  1   force =    -0.00000121    0.00160667    0.00967279
     atom  511 type  1   force =    -0.00000094    0.00160811    0.00966943
     atom  512 type  1   force =    -0.00000109    0.00160816    0.00966974
     atom  513 type  1   force =     0.00000156    0.00160808    0.00966970
     atom  514 type  1   force =     0.00000149    0.00160802    0.00966995
     atom  515 type  1   force =     0.00000140    0.00160698    0.00967305
     atom  516 type  1   force =     0.00000134    0.00160690    0.00967328
     atom  517 type  1   force =    -0.00000140    0.00160700    0.00967320
     atom  518 type  1   force =    -0.00000147    0.00160821    0.00966987
     atom  519 type  1   force =     0.00000096    0.00160823    0.00966958
     atom  520 type  1   force =     0.00000115    0.00160696    0.00967247
     atom  521 type  1   force =     0.00000015   -0.00336355    0.01657871
     atom  522 type  1   force =     0.00000272   -0.00336333    0.01657925
     atom  523 type  1   force =     0.00000000   -0.00336285    0.01658098
     atom  524 type  1   force =    -0.00000279   -0.00336323    0.01657940
     atom  525 type  1   force =    -0.00000272   -0.00336333    0.01657925
     atom  526 type  1   force =    -0.00000026   -0.00336343    0.01657874
     atom  527 type  1   force =    -0.00000015   -0.00336355    0.01657871
     atom  528 type  1   force =     0.00000239   -0.00336308    0.01657900
     atom  529 type  1   force =     0.00000244   -0.00336332    0.01657910
     atom  530 type  1   force =     0.00000000   -0.00336265    0.01658043
     atom  531 type  1   force =     0.00000000   -0.00336268    0.01658067
     atom  532 type  1   force =     0.00000000   -0.00336296    0.01658078
     atom  533 type  1   force =    -0.00000106    0.00160783    0.00966965
     atom  534 type  1   force =     0.00000151    0.00160790    0.00966983
     atom  535 type  1   force =     0.00000142    0.00160693    0.00967313
     atom  536 type  1   force =    -0.00000134    0.00160690    0.00967328
     atom  537 type  1   force =    -0.00000142    0.00160693    0.00967313
     atom  538 type  1   force =    -0.00000149    0.00160802    0.00966995
     atom  539 type  1   force =    -0.00000151    0.00160790    0.00966983
     atom  540 type  1   force =     0.00000109    0.00160816    0.00966974
     atom  541 type  1   force =     0.00000106    0.00160783    0.00966965
     atom  542 type  1   force =     0.00000116    0.00160711    0.00967258
     atom  543 type  1   force =     0.00000120    0.00160704    0.00967288
     atom  544 type  1   force =     0.00000121    0.00160667    0.00967279
     atom  545 type  1   force =    -0.00000015    0.00164972   -0.02666293
     atom  546 type  1   force =     0.00000133    0.00164725   -0.02666620
     atom  547 type  1   force =    -0.00000048    0.00164697   -0.02666608
     atom  548 type  1   force =     0.00000046    0.00164946   -0.02666250
     atom  549 type  1   force =    -0.00000046    0.00164946   -0.02666250
     atom  550 type  1   force =     0.00000051    0.00164686   -0.02666643
     atom  551 type  1   force =    -0.00000150    0.00164690   -0.02666656
     atom  552 type  1   force =     0.00000023    0.00164906   -0.02666320
     atom  553 type  1   force =    -0.00000023    0.00164906   -0.02666320
     atom  554 type  1   force =    -0.00000017    0.00164977   -0.02666329
     atom  555 type  1   force =    -0.00000019    0.00164934   -0.02666300
     atom  556 type  1   force =     0.00000150    0.00164690   -0.02666656
     atom  557 type  1   force =     0.00000163    0.00164705   -0.02666642
     atom  558 type  1   force =    -0.00000051    0.00164686   -0.02666643
     atom  559 type  1   force =    -0.00000069    0.00164697   -0.02666602
     atom  560 type  1   force =     0.00000051    0.00164918   -0.02666271
     atom  561 type  1   force =     0.00000035    0.00164916   -0.02666248
     atom  562 type  1   force =    -0.00000051    0.00164918   -0.02666271
     atom  563 type  1   force =     0.00000048    0.00164697   -0.02666608
     atom  564 type  1   force =    -0.00000163    0.00164705   -0.02666642
     atom  565 type  1   force =     0.00000039    0.00164942   -0.02666254
     atom  566 type  1   force =    -0.00000039    0.00164942   -0.02666254
     atom  567 type  1   force =     0.00000052    0.00164697   -0.02666599
     atom  568 type  1   force =    -0.00000133    0.00164725   -0.02666620
     atom  569 type  1   force =    -0.00000120    0.00164685   -0.02666622
     atom  570 type  1   force =     0.00000015    0.00164972   -0.02666293
     atom  571 type  1   force =     0.00000019    0.00164934   -0.02666300
     atom  572 type  1   force =     0.00000120    0.00164685   -0.02666622
     atom  573 type  1   force =    -0.00000052    0.00164697   -0.02666599
     atom  574 type  1   force =    -0.00000035    0.00164916   -0.02666248
     atom  575 type  1   force =     0.00000069    0.00164697   -0.02666602
     atom  576 type  1   force =     0.00000017    0.00164977   -0.02666329

     Total force =     0.269433     Total SCF correction =     0.002382
 
     init_run     :    186.03s CPU    102.49s WALL (       1 calls)
     electrons    :  14674.39s CPU   8224.85s WALL (       1 calls)
     forces       :    104.73s CPU     62.70s WALL (       1 calls)

     Called by init_run:
     wfcinit      :    176.09s CPU     94.16s WALL (       1 calls)
     potinit      :      1.15s CPU      0.62s WALL (       1 calls)
     hinit0       :      2.45s CPU      1.46s WALL (       1 calls)

     Called by electrons:
     c_bands      :  13403.20s CPU   7477.56s WALL (      27 calls)
     sum_band     :   1242.25s CPU    730.78s WALL (      27 calls)
     v_of_rho     :     12.03s CPU      6.36s WALL (      27 calls)
     newd         :     12.86s CPU      8.06s WALL (      27 calls)
     mix_rho      :      2.71s CPU      1.42s WALL (      27 calls)

     Called by c_bands:
     init_us_2    :     17.16s CPU      8.92s WALL (      55 calls)
     cegterg      :  12440.57s CPU   6546.22s WALL (      27 calls)

     Called by *egterg:
     cdiaghg      :   2541.27s CPU   1349.66s WALL (     250 calls)
     h_psi        :   3881.34s CPU   2048.67s WALL (     252 calls)
     s_psi        :   1191.16s CPU    608.09s WALL (     252 calls)
     g_psi        :      4.40s CPU      2.22s WALL (     224 calls)

     Called by h_psi:
     h_psi:calbec :   1230.65s CPU    694.92s WALL (     252 calls)
     vloc_psi     :   1495.64s CPU    761.78s WALL (     252 calls)
     add_vuspsi   :   1146.49s CPU    584.75s WALL (     252 calls)

     General routines
     calbec       :   1869.23s CPU   1056.64s WALL (     283 calls)
     fft          :     11.49s CPU      5.98s WALL (     361 calls)
     ffts         :      5.47s CPU      2.79s WALL (      54 calls)
     fftw         :   1903.97s CPU    972.46s WALL (  548108 calls)
     interpolate  :      1.21s CPU      0.63s WALL (      27 calls)
 
     Parallel routines
     fft_scatt_xy :    104.26s CPU     52.69s WALL (  548523 calls)
     fft_scatt_yz :   1445.88s CPU    740.47s WALL (  548523 calls)
 
     PWSCF        :      4h 9m CPU      2h20m WALL

 
   This run was terminated on:  22:15:52  16Sep2021            

=------------------------------------------------------------------------------=
   JOB DONE.
=------------------------------------------------------------------------------=
