
     Program PWSCF v.6.6 starts on 23Sep2021 at 14:18:21 

     This program is part of the open-source Quantum ESPRESSO suite
     for quantum simulation of materials; please cite
         "P. Giannozzi et al., J. Phys.:Condens. Matter 21 395502 (2009);
         "P. Giannozzi et al., J. Phys.:Condens. Matter 29 465901 (2017);
          URL http://www.quantum-espresso.org", 
     in publications or presentations arising from this work. More details at
     http://www.quantum-espresso.org/quote

     Parallel version (MPI & OpenMP), running on     384 processor cores
     Number of MPI processes:               192
     Threads/MPI process:                     2

     MPI processes distributed on     8 nodes
     R & G space division:  proc/nbgrp/npool/nimage =     192
     Fft bands division:     nmany     =       1
     Reading input from ../inputs/input_ausurf_576

     Current dimensions of program PWSCF are:
     Max number of different atomic species (ntypx) = 10
     Max number of k-points (npk) =  40000
     Max angular momentum in pseudopotentials (lmaxx) =  3

     Subspace diagonalization in iterative solution of the eigenvalue problem:
     one sub-group per band group will be used
     ELPA distributed-memory algorithm (size of sub-group: 13* 13 procs)

     Found symmetry operation: I + (  0.1250  0.0000  0.0000)
     This is a supercell, fractional translations are disabled
 
     Parallelization info
     --------------------
     sticks:   dense  smooth     PW     G-vecs:    dense   smooth      PW
     Min         249     114     29                59373    18352    2407
     Max         250     115     30                59388    18359    2420
     Sum       47961   21921   5681             11401369  3524293  463395
 

     Title: 
      Ausurf                                                                    


     bravais-lattice index     =            8
     lattice parameter (alat)  =      44.5975  a.u.
     unit-cell volume          =  103111.8970 (a.u.)^3
     number of atoms/cell      =          576
     number of atomic types    =            1
     number of electrons       =      6336.00
     number of Kohn-Sham states=         3802
     kinetic-energy cutoff     =      40.0000  Ry
     charge density cutoff     =     350.0000  Ry
     convergence threshold     =      1.0E-06
     mixing beta               =       0.7000
     number of iterations used =            8  TF        mixing
     Exchange-correlation=  SLA  PW   PBE  PBE
                           (   1   4   3   4   0   0   0)

     celldm(1)=  44.597537  celldm(2)=   0.866025  celldm(3)=   1.342287
     celldm(4)=   0.000000  celldm(5)=   0.000000  celldm(6)=   0.000000

     crystal axes: (cart. coord. in units of alat)
               a(1) = (   1.000000   0.000000   0.000000 )  
               a(2) = (   0.000000   0.866025   0.000000 )  
               a(3) = (   0.000000   0.000000   1.342287 )  

     reciprocal axes: (cart. coord. in units 2 pi/alat)
               b(1) = (  1.000000  0.000000  0.000000 )  
               b(2) = (  0.000000  1.154701  0.000000 )  
               b(3) = (  0.000000  0.000000  0.744997 )  


     PseudoPot. # 1 for Au read from file:
     /marconi/home/userexternal/czeni000/dft_src/pseudo/Au.pbe-nd-van.UPF
     MD5 check sum: deb5c07af10777505a79e28f5b4b4115
     Pseudo is Ultrasoft + core correction, Zval = 11.0
     Generated by new atomic code, or converted to UPF format
     Using radial grid of  985 points,  3 beta functions with: 
                l(1) =   1
                l(2) =   2
                l(3) =   2
     Q(r) pseudized with  8 coefficients,  rinner =    1.100   1.100   1.100
                                                       1.100   1.100

     atomic species   valence    mass     pseudopotential
        Au            11.00   196.96000     Au( 1.00)

      2 Sym. Ops. (no inversion) found



   Cartesian axes

     site n.     atom                  positions (alat units)
         1           Au  tau(   1) = (   0.0000000   0.0000000   0.0000000  )
         2           Au  tau(   2) = (   0.1250000   0.0000000   0.0000000  )
         3           Au  tau(   3) = (   0.2500000   0.0000000   0.0000000  )
         4           Au  tau(   4) = (   0.0000000   0.2165064   0.0000000  )
         5           Au  tau(   5) = (   0.3750000   0.0000000   0.0000000  )
         6           Au  tau(   6) = (   0.1250000   0.2165064   0.0000000  )
         7           Au  tau(   7) = (   0.5000000   0.0000000   0.0000000  )
         8           Au  tau(   8) = (   0.2500000   0.2165064   0.0000000  )
         9           Au  tau(   9) = (   0.6250000   0.0000000   0.0000000  )
        10           Au  tau(  10) = (   0.0000000   0.4330127   0.0000000  )
        11           Au  tau(  11) = (   0.3750000   0.2165064   0.0000000  )
        12           Au  tau(  12) = (   0.7500000   0.0000000   0.0000000  )
        13           Au  tau(  13) = (   0.1250000   0.4330127   0.0000000  )
        14           Au  tau(  14) = (   0.5000000   0.2165064   0.0000000  )
        15           Au  tau(  15) = (   0.8750000   0.0000000   0.0000000  )
        16           Au  tau(  16) = (   0.2500000   0.4330127   0.0000000  )
        17           Au  tau(  17) = (   0.6250000   0.2165064   0.0000000  )
        18           Au  tau(  18) = (   0.0000000   0.6495191   0.0000000  )
        19           Au  tau(  19) = (   0.3750000   0.4330127   0.0000000  )
        20           Au  tau(  20) = (   0.7500000   0.2165064   0.0000000  )
        21           Au  tau(  21) = (   0.1250000   0.6495191   0.0000000  )
        22           Au  tau(  22) = (   0.5000000   0.4330127   0.0000000  )
        23           Au  tau(  23) = (   0.8750000   0.2165064   0.0000000  )
        24           Au  tau(  24) = (   0.2500000   0.6495191   0.0000000  )
        25           Au  tau(  25) = (   0.6250000   0.4330127   0.0000000  )
        26           Au  tau(  26) = (   0.3750000   0.6495191   0.0000000  )
        27           Au  tau(  27) = (   0.7500000   0.4330127   0.0000000  )
        28           Au  tau(  28) = (   0.5000000   0.6495191   0.0000000  )
        29           Au  tau(  29) = (   0.8750000   0.4330127   0.0000000  )
        30           Au  tau(  30) = (   0.6250000   0.6495191   0.0000000  )
        31           Au  tau(  31) = (   0.7500000   0.6495191   0.0000000  )
        32           Au  tau(  32) = (   0.8750000   0.6495191   0.0000000  )
        33           Au  tau(  33) = (   0.0625000   0.0360844   0.1020621  )
        34           Au  tau(  34) = (   0.1875000   0.0360844   0.1020621  )
        35           Au  tau(  35) = (   0.3125000   0.0360844   0.1020621  )
        36           Au  tau(  36) = (   0.0625000   0.2525908   0.1020621  )
        37           Au  tau(  37) = (   0.3125000   0.2525908   0.1020621  )
        38           Au  tau(  38) = (   0.4375000   0.0360844   0.1020621  )
        39           Au  tau(  39) = (   0.6875000   0.0360844   0.1020621  )
        40           Au  tau(  40) = (   0.0625000   0.4690971   0.1020621  )
        41           Au  tau(  41) = (   0.1875000   0.2525908   0.1020621  )
        42           Au  tau(  42) = (   0.1875000   0.4690971   0.1020621  )
        43           Au  tau(  43) = (   0.4375000   0.2525908   0.1020621  )
        44           Au  tau(  44) = (   0.5625000   0.0360844   0.1020621  )
        45           Au  tau(  45) = (   0.5625000   0.2525908   0.1020621  )
        46           Au  tau(  46) = (   0.8125000   0.0360844   0.1020621  )
        47           Au  tau(  47) = (   0.9375000   0.0360844   0.1020621  )
        48           Au  tau(  48) = (   0.1250000   0.1443376   0.1020621  )
        49           Au  tau(  49) = (   0.1250000   0.3608439   0.1020621  )
        50           Au  tau(  50) = (   0.5000000   0.1443376   0.1020621  )
        51           Au  tau(  51) = (   0.1875000   0.6856034   0.1020621  )
        52           Au  tau(  52) = (   0.3125000   0.4690971   0.1020621  )
        53           Au  tau(  53) = (   0.5625000   0.4690971   0.1020621  )
        54           Au  tau(  54) = (   0.6875000   0.2525908   0.1020621  )
        55           Au  tau(  55) = (   0.9375000   0.2525908   0.1020621  )
        56           Au  tau(  56) = (   0.2500000   0.1443376   0.1020621  )
        57           Au  tau(  57) = (   0.3750000   0.1443376   0.1020621  )
        58           Au  tau(  58) = (   0.0625000   0.6856034   0.1020621  )
        59           Au  tau(  59) = (   0.3125000   0.6856034   0.1020621  )
        60           Au  tau(  60) = (   0.4375000   0.4690971   0.1020621  )
        61           Au  tau(  61) = (   0.4375000   0.6856034   0.1020621  )
        62           Au  tau(  62) = (   0.6875000   0.4690971   0.1020621  )
        63           Au  tau(  63) = (   0.8125000   0.2525908   0.1020621  )
        64           Au  tau(  64) = (   0.8125000   0.4690971   0.1020621  )
        65           Au  tau(  65) = (   0.2500000   0.3608439   0.1020621  )
        66           Au  tau(  66) = (   0.3750000   0.3608439   0.1020621  )
        67           Au  tau(  67) = (   0.3750000   0.5773503   0.1020621  )
        68           Au  tau(  68) = (   0.6250000   0.1443376   0.1020621  )
        69           Au  tau(  69) = (   0.7500000   0.1443376   0.1020621  )
        70           Au  tau(  70) = (   0.7500000   0.3608439   0.1020621  )
        71           Au  tau(  71) = (   0.5625000   0.6856034   0.1020621  )
        72           Au  tau(  72) = (   0.9375000   0.4690971   0.1020621  )
        73           Au  tau(  73) = (   0.1250000   0.5773503   0.1020621  )
        74           Au  tau(  74) = (   0.2500000   0.5773503   0.1020621  )
        75           Au  tau(  75) = (   0.5000000   0.3608439   0.1020621  )
        76           Au  tau(  76) = (   0.6250000   0.3608439   0.1020621  )
        77           Au  tau(  77) = (   0.8750000   0.1443376   0.1020621  )
        78           Au  tau(  78) = (   1.0000000   0.1443376   0.1020621  )
        79           Au  tau(  79) = (   0.6875000   0.6856034   0.1020621  )
        80           Au  tau(  80) = (   0.8125000   0.6856034   0.1020621  )
        81           Au  tau(  81) = (   0.1250000   0.7938566   0.1020621  )
        82           Au  tau(  82) = (   0.2500000   0.7938566   0.1020621  )
        83           Au  tau(  83) = (   0.5000000   0.5773503   0.1020621  )
        84           Au  tau(  84) = (   0.6250000   0.5773503   0.1020621  )
        85           Au  tau(  85) = (   0.8750000   0.3608439   0.1020621  )
        86           Au  tau(  86) = (   1.0000000   0.3608439   0.1020621  )
        87           Au  tau(  87) = (   0.9375000   0.6856034   0.1020621  )
        88           Au  tau(  88) = (   0.3750000   0.7938566   0.1020621  )
        89           Au  tau(  89) = (   0.5000000   0.7938566   0.1020621  )
        90           Au  tau(  90) = (   0.6250000   0.7938566   0.1020621  )
        91           Au  tau(  91) = (   0.7500000   0.5773503   0.1020621  )
        92           Au  tau(  92) = (   0.8750000   0.5773503   0.1020621  )
        93           Au  tau(  93) = (   1.0000000   0.5773503   0.1020621  )
        94           Au  tau(  94) = (   0.7500000   0.7938566   0.1020621  )
        95           Au  tau(  95) = (   0.8750000   0.7938566   0.1020621  )
        96           Au  tau(  96) = (   1.0000000   0.7938566   0.1020621  )
        97           Au  tau(  97) = (   0.1250000   0.0721688   0.2041242  )
        98           Au  tau(  98) = (   0.3125000   0.1804219   0.2041242  )
        99           Au  tau(  99) = (   0.2500000   0.0721688   0.2041242  )
       100           Au  tau( 100) = (   0.3750000   0.0721688   0.2041242  )
       101           Au  tau( 101) = (   0.0625000   0.1804219   0.2041242  )
       102           Au  tau( 102) = (   0.1875000   0.1804219   0.2041242  )
       103           Au  tau( 103) = (   0.1250000   0.2886751   0.2041242  )
       104           Au  tau( 104) = (   0.2500000   0.2886751   0.2041242  )
       105           Au  tau( 105) = (   0.2500000   0.5051815   0.2041242  )
       106           Au  tau( 106) = (   0.2500000   0.7216878   0.2041242  )
       107           Au  tau( 107) = (   0.3750000   0.2886751   0.2041242  )
       108           Au  tau( 108) = (   0.5000000   0.0721688   0.2041242  )
       109           Au  tau( 109) = (   0.6250000   0.0721688   0.2041242  )
       110           Au  tau( 110) = (   0.6250000   0.2886751   0.2041242  )
       111           Au  tau( 111) = (   0.6250000   0.5051815   0.2041242  )
       112           Au  tau( 112) = (   0.7500000   0.0721688   0.2041242  )
       113           Au  tau( 113) = (   1.0000000   0.0721688   0.2041242  )
       114           Au  tau( 114) = (   1.0000000   0.2886751   0.2041242  )
       115           Au  tau( 115) = (   0.0625000   0.3969283   0.2041242  )
       116           Au  tau( 116) = (   0.0625000   0.6134347   0.2041242  )
       117           Au  tau( 117) = (   0.0625000   0.8299410   0.2041242  )
       118           Au  tau( 118) = (   0.1875000   0.3969283   0.2041242  )
       119           Au  tau( 119) = (   0.1875000   0.6134347   0.2041242  )
       120           Au  tau( 120) = (   0.4375000   0.1804219   0.2041242  )
       121           Au  tau( 121) = (   0.4375000   0.3969283   0.2041242  )
       122           Au  tau( 122) = (   0.4375000   0.6134347   0.2041242  )
       123           Au  tau( 123) = (   0.4375000   0.8299410   0.2041242  )
       124           Au  tau( 124) = (   0.5625000   0.1804219   0.2041242  )
       125           Au  tau( 125) = (   0.5625000   0.3969283   0.2041242  )
       126           Au  tau( 126) = (   0.8125000   0.1804219   0.2041242  )
       127           Au  tau( 127) = (   0.8125000   0.3969283   0.2041242  )
       128           Au  tau( 128) = (   0.8125000   0.6134347   0.2041242  )
       129           Au  tau( 129) = (   0.9375000   0.1804219   0.2041242  )
       130           Au  tau( 130) = (   0.1250000   0.5051815   0.2041242  )
       131           Au  tau( 131) = (   0.1250000   0.7216878   0.2041242  )
       132           Au  tau( 132) = (   0.3750000   0.5051815   0.2041242  )
       133           Au  tau( 133) = (   0.3750000   0.7216878   0.2041242  )
       134           Au  tau( 134) = (   0.5000000   0.2886751   0.2041242  )
       135           Au  tau( 135) = (   0.5000000   0.5051815   0.2041242  )
       136           Au  tau( 136) = (   0.5000000   0.7216878   0.2041242  )
       137           Au  tau( 137) = (   0.7500000   0.2886751   0.2041242  )
       138           Au  tau( 138) = (   0.7500000   0.5051815   0.2041242  )
       139           Au  tau( 139) = (   0.8750000   0.0721688   0.2041242  )
       140           Au  tau( 140) = (   0.8750000   0.2886751   0.2041242  )
       141           Au  tau( 141) = (   0.8750000   0.5051815   0.2041242  )
       142           Au  tau( 142) = (   0.1875000   0.8299410   0.2041242  )
       143           Au  tau( 143) = (   0.3125000   0.3969283   0.2041242  )
       144           Au  tau( 144) = (   0.3125000   0.6134347   0.2041242  )
       145           Au  tau( 145) = (   0.3125000   0.8299410   0.2041242  )
       146           Au  tau( 146) = (   0.5625000   0.6134347   0.2041242  )
       147           Au  tau( 147) = (   0.6875000   0.1804219   0.2041242  )
       148           Au  tau( 148) = (   0.6875000   0.3969283   0.2041242  )
       149           Au  tau( 149) = (   0.6875000   0.6134347   0.2041242  )
       150           Au  tau( 150) = (   0.9375000   0.3969283   0.2041242  )
       151           Au  tau( 151) = (   0.6250000   0.7216878   0.2041242  )
       152           Au  tau( 152) = (   0.7500000   0.7216878   0.2041242  )
       153           Au  tau( 153) = (   0.8750000   0.7216878   0.2041242  )
       154           Au  tau( 154) = (   1.0000000   0.5051815   0.2041242  )
       155           Au  tau( 155) = (   0.5625000   0.8299410   0.2041242  )
       156           Au  tau( 156) = (   0.6875000   0.8299410   0.2041242  )
       157           Au  tau( 157) = (   0.9375000   0.6134347   0.2041242  )
       158           Au  tau( 158) = (   0.9375000   0.8299410   0.2041242  )
       159           Au  tau( 159) = (   1.0000000   0.7216878   0.2041242  )
       160           Au  tau( 160) = (   0.8125000   0.8299410   0.2041242  )
       161           Au  tau( 161) = (   0.3125000   0.1082532   0.3061862  )
       162           Au  tau( 162) = (   0.0000000   0.0000000   0.3061862  )
       163           Au  tau( 163) = (   0.1250000   0.0000000   0.3061862  )
       164           Au  tau( 164) = (   0.2500000   0.0000000   0.3061862  )
       165           Au  tau( 165) = (   0.0625000   0.1082532   0.3061862  )
       166           Au  tau( 166) = (   0.0000000   0.4330127   0.3061862  )
       167           Au  tau( 167) = (   0.1250000   0.2165064   0.3061862  )
       168           Au  tau( 168) = (   0.1250000   0.4330127   0.3061862  )
       169           Au  tau( 169) = (   0.2500000   0.2165064   0.3061862  )
       170           Au  tau( 170) = (   0.3750000   0.2165064   0.3061862  )
       171           Au  tau( 171) = (   0.5000000   0.0000000   0.3061862  )
       172           Au  tau( 172) = (   0.5000000   0.2165064   0.3061862  )
       173           Au  tau( 173) = (   0.6250000   0.0000000   0.3061862  )
       174           Au  tau( 174) = (   0.7500000   0.0000000   0.3061862  )
       175           Au  tau( 175) = (   0.8750000   0.0000000   0.3061862  )
       176           Au  tau( 176) = (   0.0625000   0.3247595   0.3061862  )
       177           Au  tau( 177) = (   0.1875000   0.1082532   0.3061862  )
       178           Au  tau( 178) = (   0.1875000   0.3247595   0.3061862  )
       179           Au  tau( 179) = (   0.3125000   0.3247595   0.3061862  )
       180           Au  tau( 180) = (   0.4375000   0.1082532   0.3061862  )
       181           Au  tau( 181) = (   0.5625000   0.1082532   0.3061862  )
       182           Au  tau( 182) = (   0.6875000   0.1082532   0.3061862  )
       183           Au  tau( 183) = (   0.8125000   0.7577722   0.3061862  )
       184           Au  tau( 184) = (   0.0000000   0.2165064   0.3061862  )
       185           Au  tau( 185) = (   0.1250000   0.6495191   0.3061862  )
       186           Au  tau( 186) = (   0.2500000   0.6495191   0.3061862  )
       187           Au  tau( 187) = (   0.3750000   0.0000000   0.3061862  )
       188           Au  tau( 188) = (   0.3750000   0.6495191   0.3061862  )
       189           Au  tau( 189) = (   0.5000000   0.4330127   0.3061862  )
       190           Au  tau( 190) = (   0.6250000   0.4330127   0.3061862  )
       191           Au  tau( 191) = (   0.7500000   0.4330127   0.3061862  )
       192           Au  tau( 192) = (   0.8750000   0.2165064   0.3061862  )
       193           Au  tau( 193) = (   0.0625000   0.5412659   0.3061862  )
       194           Au  tau( 194) = (   0.0625000   0.7577722   0.3061862  )
       195           Au  tau( 195) = (   0.1875000   0.5412659   0.3061862  )
       196           Au  tau( 196) = (   0.1875000   0.7577722   0.3061862  )
       197           Au  tau( 197) = (   0.3125000   0.5412659   0.3061862  )
       198           Au  tau( 198) = (   0.4375000   0.3247595   0.3061862  )
       199           Au  tau( 199) = (   0.4375000   0.5412659   0.3061862  )
       200           Au  tau( 200) = (   0.5625000   0.3247595   0.3061862  )
       201           Au  tau( 201) = (   0.5625000   0.5412659   0.3061862  )
       202           Au  tau( 202) = (   0.6875000   0.3247595   0.3061862  )
       203           Au  tau( 203) = (   0.8125000   0.1082532   0.3061862  )
       204           Au  tau( 204) = (   0.8125000   0.3247595   0.3061862  )
       205           Au  tau( 205) = (   0.9375000   0.1082532   0.3061862  )
       206           Au  tau( 206) = (   0.9375000   0.3247595   0.3061862  )
       207           Au  tau( 207) = (   0.9375000   0.7577722   0.3061862  )
       208           Au  tau( 208) = (   0.0000000   0.6495191   0.3061862  )
       209           Au  tau( 209) = (   0.2500000   0.4330127   0.3061862  )
       210           Au  tau( 210) = (   0.3750000   0.4330127   0.3061862  )
       211           Au  tau( 211) = (   0.5000000   0.6495191   0.3061862  )
       212           Au  tau( 212) = (   0.6250000   0.2165064   0.3061862  )
       213           Au  tau( 213) = (   0.6250000   0.6495191   0.3061862  )
       214           Au  tau( 214) = (   0.7500000   0.2165064   0.3061862  )
       215           Au  tau( 215) = (   0.7500000   0.6495191   0.3061862  )
       216           Au  tau( 216) = (   0.8750000   0.4330127   0.3061862  )
       217           Au  tau( 217) = (   0.8750000   0.6495191   0.3061862  )
       218           Au  tau( 218) = (   0.3125000   0.7577722   0.3061862  )
       219           Au  tau( 219) = (   0.4375000   0.7577722   0.3061862  )
       220           Au  tau( 220) = (   0.5625000   0.7577722   0.3061862  )
       221           Au  tau( 221) = (   0.6875000   0.5412659   0.3061862  )
       222           Au  tau( 222) = (   0.6875000   0.7577722   0.3061862  )
       223           Au  tau( 223) = (   0.8125000   0.5412659   0.3061862  )
       224           Au  tau( 224) = (   0.9375000   0.5412659   0.3061862  )
       225           Au  tau( 225) = (   0.0625000   0.2525908   0.4082483  )
       226           Au  tau( 226) = (   0.4375000   0.0360844   0.4082483  )
       227           Au  tau( 227) = (   0.2500000   0.1443376   0.4082483  )
       228           Au  tau( 228) = (   0.0625000   0.0360844   0.4082483  )
       229           Au  tau( 229) = (   0.1875000   0.0360844   0.4082483  )
       230           Au  tau( 230) = (   0.1875000   0.2525908   0.4082483  )
       231           Au  tau( 231) = (   0.3125000   0.0360844   0.4082483  )
       232           Au  tau( 232) = (   0.5625000   0.0360844   0.4082483  )
       233           Au  tau( 233) = (   0.1250000   0.1443376   0.4082483  )
       234           Au  tau( 234) = (   0.1250000   0.3608439   0.4082483  )
       235           Au  tau( 235) = (   0.2500000   0.3608439   0.4082483  )
       236           Au  tau( 236) = (   0.3750000   0.1443376   0.4082483  )
       237           Au  tau( 237) = (   0.5000000   0.1443376   0.4082483  )
       238           Au  tau( 238) = (   0.6250000   0.1443376   0.4082483  )
       239           Au  tau( 239) = (   0.0625000   0.4690971   0.4082483  )
       240           Au  tau( 240) = (   0.0625000   0.6856034   0.4082483  )
       241           Au  tau( 241) = (   0.1875000   0.4690971   0.4082483  )
       242           Au  tau( 242) = (   0.1875000   0.6856034   0.4082483  )
       243           Au  tau( 243) = (   0.3125000   0.2525908   0.4082483  )
       244           Au  tau( 244) = (   0.3125000   0.4690971   0.4082483  )
       245           Au  tau( 245) = (   0.3125000   0.6856034   0.4082483  )
       246           Au  tau( 246) = (   0.4375000   0.2525908   0.4082483  )
       247           Au  tau( 247) = (   0.4375000   0.4690971   0.4082483  )
       248           Au  tau( 248) = (   0.4375000   0.6856034   0.4082483  )
       249           Au  tau( 249) = (   0.5625000   0.2525908   0.4082483  )
       250           Au  tau( 250) = (   0.5625000   0.4690971   0.4082483  )
       251           Au  tau( 251) = (   0.5625000   0.6856034   0.4082483  )
       252           Au  tau( 252) = (   0.6875000   0.0360844   0.4082483  )
       253           Au  tau( 253) = (   0.6875000   0.2525908   0.4082483  )
       254           Au  tau( 254) = (   0.6875000   0.4690971   0.4082483  )
       255           Au  tau( 255) = (   0.8125000   0.0360844   0.4082483  )
       256           Au  tau( 256) = (   0.8125000   0.2525908   0.4082483  )
       257           Au  tau( 257) = (   0.8125000   0.4690971   0.4082483  )
       258           Au  tau( 258) = (   0.9375000   0.0360844   0.4082483  )
       259           Au  tau( 259) = (   0.9375000   0.2525908   0.4082483  )
       260           Au  tau( 260) = (   0.9375000   0.4690971   0.4082483  )
       261           Au  tau( 261) = (   0.1250000   0.5773503   0.4082483  )
       262           Au  tau( 262) = (   0.1250000   0.7938566   0.4082483  )
       263           Au  tau( 263) = (   0.2500000   0.5773503   0.4082483  )
       264           Au  tau( 264) = (   0.2500000   0.7938566   0.4082483  )
       265           Au  tau( 265) = (   0.3750000   0.3608439   0.4082483  )
       266           Au  tau( 266) = (   0.3750000   0.5773503   0.4082483  )
       267           Au  tau( 267) = (   0.3750000   0.7938566   0.4082483  )
       268           Au  tau( 268) = (   0.5000000   0.3608439   0.4082483  )
       269           Au  tau( 269) = (   0.5000000   0.5773503   0.4082483  )
       270           Au  tau( 270) = (   0.6250000   0.3608439   0.4082483  )
       271           Au  tau( 271) = (   0.6250000   0.5773503   0.4082483  )
       272           Au  tau( 272) = (   0.7500000   0.1443376   0.4082483  )
       273           Au  tau( 273) = (   0.7500000   0.3608439   0.4082483  )
       274           Au  tau( 274) = (   0.7500000   0.5773503   0.4082483  )
       275           Au  tau( 275) = (   0.7500000   0.7938566   0.4082483  )
       276           Au  tau( 276) = (   0.8750000   0.1443376   0.4082483  )
       277           Au  tau( 277) = (   0.8750000   0.3608439   0.4082483  )
       278           Au  tau( 278) = (   1.0000000   0.1443376   0.4082483  )
       279           Au  tau( 279) = (   1.0000000   0.3608439   0.4082483  )
       280           Au  tau( 280) = (   0.6875000   0.6856034   0.4082483  )
       281           Au  tau( 281) = (   0.8125000   0.6856034   0.4082483  )
       282           Au  tau( 282) = (   0.9375000   0.6856034   0.4082483  )
       283           Au  tau( 283) = (   0.5000000   0.7938566   0.4082483  )
       284           Au  tau( 284) = (   0.6250000   0.7938566   0.4082483  )
       285           Au  tau( 285) = (   0.8750000   0.5773503   0.4082483  )
       286           Au  tau( 286) = (   0.8750000   0.7938566   0.4082483  )
       287           Au  tau( 287) = (   1.0000000   0.5773503   0.4082483  )
       288           Au  tau( 288) = (   1.0000000   0.7938566   0.4082483  )
       289           Au  tau( 289) = (   0.1250000   0.0721688   0.5103104  )
       290           Au  tau( 290) = (   0.2500000   0.0721688   0.5103104  )
       291           Au  tau( 291) = (   0.3750000   0.0721688   0.5103104  )
       292           Au  tau( 292) = (   0.0625000   0.1804219   0.5103104  )
       293           Au  tau( 293) = (   0.1875000   0.1804219   0.5103104  )
       294           Au  tau( 294) = (   0.1875000   0.3969283   0.5103104  )
       295           Au  tau( 295) = (   0.5625000   0.1804219   0.5103104  )
       296           Au  tau( 296) = (   0.1250000   0.2886751   0.5103104  )
       297           Au  tau( 297) = (   0.1250000   0.5051815   0.5103104  )
       298           Au  tau( 298) = (   0.1250000   0.7216878   0.5103104  )
       299           Au  tau( 299) = (   0.2500000   0.2886751   0.5103104  )
       300           Au  tau( 300) = (   0.2500000   0.5051815   0.5103104  )
       301           Au  tau( 301) = (   0.2500000   0.7216878   0.5103104  )
       302           Au  tau( 302) = (   0.3750000   0.2886751   0.5103104  )
       303           Au  tau( 303) = (   0.3750000   0.5051815   0.5103104  )
       304           Au  tau( 304) = (   0.3750000   0.7216878   0.5103104  )
       305           Au  tau( 305) = (   0.5000000   0.0721688   0.5103104  )
       306           Au  tau( 306) = (   0.5000000   0.2886751   0.5103104  )
       307           Au  tau( 307) = (   0.5000000   0.5051815   0.5103104  )
       308           Au  tau( 308) = (   0.5000000   0.7216878   0.5103104  )
       309           Au  tau( 309) = (   0.6250000   0.0721688   0.5103104  )
       310           Au  tau( 310) = (   0.6250000   0.2886751   0.5103104  )
       311           Au  tau( 311) = (   0.6250000   0.5051815   0.5103104  )
       312           Au  tau( 312) = (   0.7500000   0.0721688   0.5103104  )
       313           Au  tau( 313) = (   0.7500000   0.2886751   0.5103104  )
       314           Au  tau( 314) = (   0.7500000   0.5051815   0.5103104  )
       315           Au  tau( 315) = (   0.8750000   0.0721688   0.5103104  )
       316           Au  tau( 316) = (   0.8750000   0.2886751   0.5103104  )
       317           Au  tau( 317) = (   0.8750000   0.5051815   0.5103104  )
       318           Au  tau( 318) = (   1.0000000   0.0721688   0.5103104  )
       319           Au  tau( 319) = (   1.0000000   0.2886751   0.5103104  )
       320           Au  tau( 320) = (   0.0625000   0.3969283   0.5103104  )
       321           Au  tau( 321) = (   0.0625000   0.6134347   0.5103104  )
       322           Au  tau( 322) = (   0.0625000   0.8299410   0.5103104  )
       323           Au  tau( 323) = (   0.1875000   0.6134347   0.5103104  )
       324           Au  tau( 324) = (   0.1875000   0.8299410   0.5103104  )
       325           Au  tau( 325) = (   0.3125000   0.1804219   0.5103104  )
       326           Au  tau( 326) = (   0.3125000   0.3969283   0.5103104  )
       327           Au  tau( 327) = (   0.3125000   0.6134347   0.5103104  )
       328           Au  tau( 328) = (   0.3125000   0.8299410   0.5103104  )
       329           Au  tau( 329) = (   0.4375000   0.1804219   0.5103104  )
       330           Au  tau( 330) = (   0.4375000   0.3969283   0.5103104  )
       331           Au  tau( 331) = (   0.4375000   0.6134347   0.5103104  )
       332           Au  tau( 332) = (   0.5625000   0.3969283   0.5103104  )
       333           Au  tau( 333) = (   0.5625000   0.6134347   0.5103104  )
       334           Au  tau( 334) = (   0.6875000   0.1804219   0.5103104  )
       335           Au  tau( 335) = (   0.6875000   0.3969283   0.5103104  )
       336           Au  tau( 336) = (   0.6875000   0.6134347   0.5103104  )
       337           Au  tau( 337) = (   0.8125000   0.1804219   0.5103104  )
       338           Au  tau( 338) = (   0.8125000   0.3969283   0.5103104  )
       339           Au  tau( 339) = (   0.9375000   0.1804219   0.5103104  )
       340           Au  tau( 340) = (   0.9375000   0.3969283   0.5103104  )
       341           Au  tau( 341) = (   0.6250000   0.7216878   0.5103104  )
       342           Au  tau( 342) = (   0.7500000   0.7216878   0.5103104  )
       343           Au  tau( 343) = (   0.8750000   0.7216878   0.5103104  )
       344           Au  tau( 344) = (   1.0000000   0.5051815   0.5103104  )
       345           Au  tau( 345) = (   1.0000000   0.7216878   0.5103104  )
       346           Au  tau( 346) = (   0.4375000   0.8299410   0.5103104  )
       347           Au  tau( 347) = (   0.5625000   0.8299410   0.5103104  )
       348           Au  tau( 348) = (   0.6875000   0.8299410   0.5103104  )
       349           Au  tau( 349) = (   0.8125000   0.6134347   0.5103104  )
       350           Au  tau( 350) = (   0.8125000   0.8299410   0.5103104  )
       351           Au  tau( 351) = (   0.9375000   0.6134347   0.5103104  )
       352           Au  tau( 352) = (   0.9375000   0.8299410   0.5103104  )
       353           Au  tau( 353) = (   0.0000000   0.0000000   0.6123724  )
       354           Au  tau( 354) = (   0.0000000   0.2165064   0.6123724  )
       355           Au  tau( 355) = (   0.1250000   0.0000000   0.6123724  )
       356           Au  tau( 356) = (   0.1250000   0.2165064   0.6123724  )
       357           Au  tau( 357) = (   0.2500000   0.0000000   0.6123724  )
       358           Au  tau( 358) = (   0.3750000   0.0000000   0.6123724  )
       359           Au  tau( 359) = (   0.5000000   0.0000000   0.6123724  )
       360           Au  tau( 360) = (   0.0625000   0.1082532   0.6123724  )
       361           Au  tau( 361) = (   0.1875000   0.1082532   0.6123724  )
       362           Au  tau( 362) = (   0.3125000   0.1082532   0.6123724  )
       363           Au  tau( 363) = (   0.0000000   0.6495191   0.6123724  )
       364           Au  tau( 364) = (   0.1250000   0.4330127   0.6123724  )
       365           Au  tau( 365) = (   0.1250000   0.6495191   0.6123724  )
       366           Au  tau( 366) = (   0.2500000   0.4330127   0.6123724  )
       367           Au  tau( 367) = (   0.2500000   0.6495191   0.6123724  )
       368           Au  tau( 368) = (   0.3750000   0.4330127   0.6123724  )
       369           Au  tau( 369) = (   0.3750000   0.6495191   0.6123724  )
       370           Au  tau( 370) = (   0.5000000   0.2165064   0.6123724  )
       371           Au  tau( 371) = (   0.5000000   0.4330127   0.6123724  )
       372           Au  tau( 372) = (   0.5000000   0.6495191   0.6123724  )
       373           Au  tau( 373) = (   0.6250000   0.2165064   0.6123724  )
       374           Au  tau( 374) = (   0.6250000   0.4330127   0.6123724  )
       375           Au  tau( 375) = (   0.6250000   0.6495191   0.6123724  )
       376           Au  tau( 376) = (   0.7500000   0.2165064   0.6123724  )
       377           Au  tau( 377) = (   0.7500000   0.4330127   0.6123724  )
       378           Au  tau( 378) = (   0.8750000   0.0000000   0.6123724  )
       379           Au  tau( 379) = (   0.8750000   0.2165064   0.6123724  )
       380           Au  tau( 380) = (   0.8750000   0.4330127   0.6123724  )
       381           Au  tau( 381) = (   0.0625000   0.3247595   0.6123724  )
       382           Au  tau( 382) = (   0.0625000   0.5412659   0.6123724  )
       383           Au  tau( 383) = (   0.0625000   0.7577722   0.6123724  )
       384           Au  tau( 384) = (   0.1875000   0.3247595   0.6123724  )
       385           Au  tau( 385) = (   0.1875000   0.5412659   0.6123724  )
       386           Au  tau( 386) = (   0.1875000   0.7577722   0.6123724  )
       387           Au  tau( 387) = (   0.3125000   0.3247595   0.6123724  )
       388           Au  tau( 388) = (   0.3125000   0.5412659   0.6123724  )
       389           Au  tau( 389) = (   0.3125000   0.7577722   0.6123724  )
       390           Au  tau( 390) = (   0.4375000   0.1082532   0.6123724  )
       391           Au  tau( 391) = (   0.4375000   0.3247595   0.6123724  )
       392           Au  tau( 392) = (   0.4375000   0.5412659   0.6123724  )
       393           Au  tau( 393) = (   0.4375000   0.7577722   0.6123724  )
       394           Au  tau( 394) = (   0.5625000   0.1082532   0.6123724  )
       395           Au  tau( 395) = (   0.5625000   0.3247595   0.6123724  )
       396           Au  tau( 396) = (   0.5625000   0.5412659   0.6123724  )
       397           Au  tau( 397) = (   0.6875000   0.1082532   0.6123724  )
       398           Au  tau( 398) = (   0.6875000   0.3247595   0.6123724  )
       399           Au  tau( 399) = (   0.6875000   0.5412659   0.6123724  )
       400           Au  tau( 400) = (   0.8125000   0.1082532   0.6123724  )
       401           Au  tau( 401) = (   0.8125000   0.3247595   0.6123724  )
       402           Au  tau( 402) = (   0.8125000   0.5412659   0.6123724  )
       403           Au  tau( 403) = (   0.9375000   0.1082532   0.6123724  )
       404           Au  tau( 404) = (   0.9375000   0.3247595   0.6123724  )
       405           Au  tau( 405) = (   0.0000000   0.4330127   0.6123724  )
       406           Au  tau( 406) = (   0.2500000   0.2165064   0.6123724  )
       407           Au  tau( 407) = (   0.3750000   0.2165064   0.6123724  )
       408           Au  tau( 408) = (   0.6250000   0.0000000   0.6123724  )
       409           Au  tau( 409) = (   0.7500000   0.0000000   0.6123724  )
       410           Au  tau( 410) = (   0.5625000   0.7577722   0.6123724  )
       411           Au  tau( 411) = (   0.6875000   0.7577722   0.6123724  )
       412           Au  tau( 412) = (   0.9375000   0.5412659   0.6123724  )
       413           Au  tau( 413) = (   0.7500000   0.6495191   0.6123724  )
       414           Au  tau( 414) = (   0.8750000   0.6495191   0.6123724  )
       415           Au  tau( 415) = (   0.8125000   0.7577722   0.6123724  )
       416           Au  tau( 416) = (   0.9375000   0.7577722   0.6123724  )
       417           Au  tau( 417) = (   0.0625000   0.4690971   0.7144345  )
       418           Au  tau( 418) = (   0.1875000   0.4690971   0.7144345  )
       419           Au  tau( 419) = (   0.3125000   0.4690971   0.7144345  )
       420           Au  tau( 420) = (   0.4375000   0.2525908   0.7144345  )
       421           Au  tau( 421) = (   0.5625000   0.2525908   0.7144345  )
       422           Au  tau( 422) = (   0.6875000   0.2525908   0.7144345  )
       423           Au  tau( 423) = (   0.8125000   0.0360844   0.7144345  )
       424           Au  tau( 424) = (   0.9375000   0.0360844   0.7144345  )
       425           Au  tau( 425) = (   0.1250000   0.5773503   0.7144345  )
       426           Au  tau( 426) = (   0.2500000   0.3608439   0.7144345  )
       427           Au  tau( 427) = (   0.3750000   0.3608439   0.7144345  )
       428           Au  tau( 428) = (   0.5000000   0.3608439   0.7144345  )
       429           Au  tau( 429) = (   0.6250000   0.1443376   0.7144345  )
       430           Au  tau( 430) = (   0.7500000   0.1443376   0.7144345  )
       431           Au  tau( 431) = (   0.8750000   0.1443376   0.7144345  )
       432           Au  tau( 432) = (   0.0625000   0.0360844   0.7144345  )
       433           Au  tau( 433) = (   0.0625000   0.2525908   0.7144345  )
       434           Au  tau( 434) = (   0.0625000   0.6856034   0.7144345  )
       435           Au  tau( 435) = (   0.1875000   0.0360844   0.7144345  )
       436           Au  tau( 436) = (   0.1875000   0.2525908   0.7144345  )
       437           Au  tau( 437) = (   0.3125000   0.0360844   0.7144345  )
       438           Au  tau( 438) = (   0.3125000   0.2525908   0.7144345  )
       439           Au  tau( 439) = (   0.4375000   0.0360844   0.7144345  )
       440           Au  tau( 440) = (   0.4375000   0.4690971   0.7144345  )
       441           Au  tau( 441) = (   0.5625000   0.0360844   0.7144345  )
       442           Au  tau( 442) = (   0.6875000   0.0360844   0.7144345  )
       443           Au  tau( 443) = (   0.8125000   0.2525908   0.7144345  )
       444           Au  tau( 444) = (   0.1250000   0.1443376   0.7144345  )
       445           Au  tau( 445) = (   0.1250000   0.3608439   0.7144345  )
       446           Au  tau( 446) = (   0.1250000   0.7938566   0.7144345  )
       447           Au  tau( 447) = (   0.2500000   0.1443376   0.7144345  )
       448           Au  tau( 448) = (   0.2500000   0.5773503   0.7144345  )
       449           Au  tau( 449) = (   0.3750000   0.1443376   0.7144345  )
       450           Au  tau( 450) = (   0.3750000   0.5773503   0.7144345  )
       451           Au  tau( 451) = (   0.5000000   0.1443376   0.7144345  )
       452           Au  tau( 452) = (   0.5000000   0.5773503   0.7144345  )
       453           Au  tau( 453) = (   0.6250000   0.3608439   0.7144345  )
       454           Au  tau( 454) = (   0.7500000   0.3608439   0.7144345  )
       455           Au  tau( 455) = (   0.8750000   0.3608439   0.7144345  )
       456           Au  tau( 456) = (   1.0000000   0.1443376   0.7144345  )
       457           Au  tau( 457) = (   0.1875000   0.6856034   0.7144345  )
       458           Au  tau( 458) = (   0.3125000   0.6856034   0.7144345  )
       459           Au  tau( 459) = (   0.4375000   0.6856034   0.7144345  )
       460           Au  tau( 460) = (   0.5625000   0.4690971   0.7144345  )
       461           Au  tau( 461) = (   0.5625000   0.6856034   0.7144345  )
       462           Au  tau( 462) = (   0.6875000   0.4690971   0.7144345  )
       463           Au  tau( 463) = (   0.6875000   0.6856034   0.7144345  )
       464           Au  tau( 464) = (   0.8125000   0.4690971   0.7144345  )
       465           Au  tau( 465) = (   0.8125000   0.6856034   0.7144345  )
       466           Au  tau( 466) = (   0.9375000   0.2525908   0.7144345  )
       467           Au  tau( 467) = (   0.9375000   0.4690971   0.7144345  )
       468           Au  tau( 468) = (   0.9375000   0.6856034   0.7144345  )
       469           Au  tau( 469) = (   0.2500000   0.7938566   0.7144345  )
       470           Au  tau( 470) = (   0.3750000   0.7938566   0.7144345  )
       471           Au  tau( 471) = (   0.5000000   0.7938566   0.7144345  )
       472           Au  tau( 472) = (   0.6250000   0.5773503   0.7144345  )
       473           Au  tau( 473) = (   0.6250000   0.7938566   0.7144345  )
       474           Au  tau( 474) = (   0.7500000   0.5773503   0.7144345  )
       475           Au  tau( 475) = (   0.7500000   0.7938566   0.7144345  )
       476           Au  tau( 476) = (   0.8750000   0.5773503   0.7144345  )
       477           Au  tau( 477) = (   0.8750000   0.7938566   0.7144345  )
       478           Au  tau( 478) = (   1.0000000   0.3608439   0.7144345  )
       479           Au  tau( 479) = (   1.0000000   0.5773503   0.7144345  )
       480           Au  tau( 480) = (   1.0000000   0.7938566   0.7144345  )
       481           Au  tau( 481) = (   0.1250000   0.5051815   0.8164966  )
       482           Au  tau( 482) = (   0.2500000   0.5051815   0.8164966  )
       483           Au  tau( 483) = (   0.3750000   0.2886751   0.8164966  )
       484           Au  tau( 484) = (   0.5000000   0.2886751   0.8164966  )
       485           Au  tau( 485) = (   0.6250000   0.2886751   0.8164966  )
       486           Au  tau( 486) = (   0.7500000   0.0721688   0.8164966  )
       487           Au  tau( 487) = (   0.8750000   0.0721688   0.8164966  )
       488           Au  tau( 488) = (   1.0000000   0.0721688   0.8164966  )
       489           Au  tau( 489) = (   0.0625000   0.6134347   0.8164966  )
       490           Au  tau( 490) = (   0.1875000   0.3969283   0.8164966  )
       491           Au  tau( 491) = (   0.3125000   0.3969283   0.8164966  )
       492           Au  tau( 492) = (   0.4375000   0.3969283   0.8164966  )
       493           Au  tau( 493) = (   0.5625000   0.1804219   0.8164966  )
       494           Au  tau( 494) = (   0.6875000   0.1804219   0.8164966  )
       495           Au  tau( 495) = (   0.8125000   0.1804219   0.8164966  )
       496           Au  tau( 496) = (   0.1250000   0.0721688   0.8164966  )
       497           Au  tau( 497) = (   0.1250000   0.2886751   0.8164966  )
       498           Au  tau( 498) = (   0.1250000   0.7216878   0.8164966  )
       499           Au  tau( 499) = (   0.2500000   0.0721688   0.8164966  )
       500           Au  tau( 500) = (   0.2500000   0.2886751   0.8164966  )
       501           Au  tau( 501) = (   0.3750000   0.0721688   0.8164966  )
       502           Au  tau( 502) = (   0.3750000   0.5051815   0.8164966  )
       503           Au  tau( 503) = (   0.5000000   0.0721688   0.8164966  )
       504           Au  tau( 504) = (   0.5000000   0.5051815   0.8164966  )
       505           Au  tau( 505) = (   0.6250000   0.0721688   0.8164966  )
       506           Au  tau( 506) = (   0.7500000   0.2886751   0.8164966  )
       507           Au  tau( 507) = (   0.8750000   0.2886751   0.8164966  )
       508           Au  tau( 508) = (   0.0625000   0.1804219   0.8164966  )
       509           Au  tau( 509) = (   0.0625000   0.3969283   0.8164966  )
       510           Au  tau( 510) = (   0.0625000   0.8299410   0.8164966  )
       511           Au  tau( 511) = (   0.1875000   0.1804219   0.8164966  )
       512           Au  tau( 512) = (   0.1875000   0.6134347   0.8164966  )
       513           Au  tau( 513) = (   0.3125000   0.1804219   0.8164966  )
       514           Au  tau( 514) = (   0.3125000   0.6134347   0.8164966  )
       515           Au  tau( 515) = (   0.4375000   0.1804219   0.8164966  )
       516           Au  tau( 516) = (   0.4375000   0.6134347   0.8164966  )
       517           Au  tau( 517) = (   0.5625000   0.3969283   0.8164966  )
       518           Au  tau( 518) = (   0.6875000   0.3969283   0.8164966  )
       519           Au  tau( 519) = (   0.8125000   0.3969283   0.8164966  )
       520           Au  tau( 520) = (   0.9375000   0.1804219   0.8164966  )
       521           Au  tau( 521) = (   0.2500000   0.7216878   0.8164966  )
       522           Au  tau( 522) = (   0.3750000   0.7216878   0.8164966  )
       523           Au  tau( 523) = (   0.5000000   0.7216878   0.8164966  )
       524           Au  tau( 524) = (   0.6250000   0.5051815   0.8164966  )
       525           Au  tau( 525) = (   0.6250000   0.7216878   0.8164966  )
       526           Au  tau( 526) = (   0.7500000   0.5051815   0.8164966  )
       527           Au  tau( 527) = (   0.7500000   0.7216878   0.8164966  )
       528           Au  tau( 528) = (   0.8750000   0.5051815   0.8164966  )
       529           Au  tau( 529) = (   0.8750000   0.7216878   0.8164966  )
       530           Au  tau( 530) = (   1.0000000   0.2886751   0.8164966  )
       531           Au  tau( 531) = (   1.0000000   0.5051815   0.8164966  )
       532           Au  tau( 532) = (   1.0000000   0.7216878   0.8164966  )
       533           Au  tau( 533) = (   0.1875000   0.8299410   0.8164966  )
       534           Au  tau( 534) = (   0.3125000   0.8299410   0.8164966  )
       535           Au  tau( 535) = (   0.4375000   0.8299410   0.8164966  )
       536           Au  tau( 536) = (   0.5625000   0.6134347   0.8164966  )
       537           Au  tau( 537) = (   0.5625000   0.8299410   0.8164966  )
       538           Au  tau( 538) = (   0.6875000   0.6134347   0.8164966  )
       539           Au  tau( 539) = (   0.6875000   0.8299410   0.8164966  )
       540           Au  tau( 540) = (   0.8125000   0.6134347   0.8164966  )
       541           Au  tau( 541) = (   0.8125000   0.8299410   0.8164966  )
       542           Au  tau( 542) = (   0.9375000   0.3969283   0.8164966  )
       543           Au  tau( 543) = (   0.9375000   0.6134347   0.8164966  )
       544           Au  tau( 544) = (   0.9375000   0.8299410   0.8164966  )
       545           Au  tau( 545) = (   0.0625000   0.5412659   0.9185586  )
       546           Au  tau( 546) = (   0.1875000   0.5412659   0.9185586  )
       547           Au  tau( 547) = (   0.3125000   0.3247595   0.9185586  )
       548           Au  tau( 548) = (   0.4375000   0.3247595   0.9185586  )
       549           Au  tau( 549) = (   0.5625000   0.3247595   0.9185586  )
       550           Au  tau( 550) = (   0.6875000   0.1082532   0.9185586  )
       551           Au  tau( 551) = (   0.8125000   0.1082532   0.9185586  )
       552           Au  tau( 552) = (   0.9375000   0.1082532   0.9185586  )
       553           Au  tau( 553) = (   0.0625000   0.1082532   0.9185586  )
       554           Au  tau( 554) = (   0.0625000   0.3247595   0.9185586  )
       555           Au  tau( 555) = (   0.0625000   0.7577722   0.9185586  )
       556           Au  tau( 556) = (   0.1875000   0.1082532   0.9185586  )
       557           Au  tau( 557) = (   0.1875000   0.3247595   0.9185586  )
       558           Au  tau( 558) = (   0.3125000   0.1082532   0.9185586  )
       559           Au  tau( 559) = (   0.3125000   0.5412659   0.9185586  )
       560           Au  tau( 560) = (   0.4375000   0.1082532   0.9185586  )
       561           Au  tau( 561) = (   0.4375000   0.5412659   0.9185586  )
       562           Au  tau( 562) = (   0.5625000   0.1082532   0.9185586  )
       563           Au  tau( 563) = (   0.6875000   0.3247595   0.9185586  )
       564           Au  tau( 564) = (   0.8125000   0.3247595   0.9185586  )
       565           Au  tau( 565) = (   0.4375000   0.7577722   0.9185586  )
       566           Au  tau( 566) = (   0.5625000   0.7577722   0.9185586  )
       567           Au  tau( 567) = (   0.6875000   0.7577722   0.9185586  )
       568           Au  tau( 568) = (   0.8125000   0.5412659   0.9185586  )
       569           Au  tau( 569) = (   0.8125000   0.7577722   0.9185586  )
       570           Au  tau( 570) = (   0.9375000   0.5412659   0.9185586  )
       571           Au  tau( 571) = (   0.9375000   0.7577722   0.9185586  )
       572           Au  tau( 572) = (   0.1875000   0.7577722   0.9185586  )
       573           Au  tau( 573) = (   0.3125000   0.7577722   0.9185586  )
       574           Au  tau( 574) = (   0.5625000   0.5412659   0.9185586  )
       575           Au  tau( 575) = (   0.6875000   0.5412659   0.9185586  )
       576           Au  tau( 576) = (   0.9375000   0.3247595   0.9185586  )

     number of k points=     4  Marzari-Vanderbilt smearing, width (Ry)=  0.0500
                       cart. coord. in units 2pi/alat
        k(    1) = (   0.1666667   0.1924501   0.0000000), wk =   0.8888889
        k(    2) = (   0.1666667  -0.5773503   0.0000000), wk =   0.4444444
        k(    3) = (  -0.5000000   0.1924501   0.0000000), wk =   0.4444444
        k(    4) = (  -0.5000000  -0.5773503   0.0000000), wk =   0.2222222

     Dense  grid: 11401369 G-vectors     FFT dimensions: ( 270, 240, 360)

     Smooth grid:  3524293 G-vectors     FFT dimensions: ( 180, 160, 243)

     Estimated max dynamical RAM per process >       2.56 GB

     Estimated total dynamical RAM >     491.77 GB

     Initial potential from superposition of free atoms

     starting charge 6329.31153, renormalised to 6336.00000

     negative rho (up, down):  1.536E+01 0.000E+00
     Starting wfcs are 5184 randomized atomic wfcs

     total cpu time spent up to now is      250.6 secs

     Self-consistent Calculation

     iteration #  1     ecut=    40.00 Ry     beta= 0.70
     Davidson diagonalization with overlap
     ethr =  1.00E-02,  avg # of iterations =  3.0

     Threshold (ethr) on eigenvalues was too large:
     Diagonalizing with lowered threshold

     Davidson diagonalization with overlap
     ethr =  3.34E-04,  avg # of iterations =  3.8

     negative rho (up, down):  1.461E+01 0.000E+00

     total cpu time spent up to now is     1519.8 secs

     total energy              =  -58770.14164948 Ry
     estimated scf accuracy    <      25.28077310 Ry

     iteration #  2     ecut=    40.00 Ry     beta= 0.70
     Davidson diagonalization with overlap
     ethr =  3.99E-04,  avg # of iterations =  1.2

     negative rho (up, down):  1.543E+01 0.000E+00

     total cpu time spent up to now is     2023.4 secs

     total energy              =  -58771.29725897 Ry
     estimated scf accuracy    <      11.25993011 Ry

     iteration #  3     ecut=    40.00 Ry     beta= 0.70
     Davidson diagonalization with overlap
     ethr =  1.78E-04,  avg # of iterations =  2.5

     negative rho (up, down):  1.621E+01 0.000E+00

     total cpu time spent up to now is     2589.7 secs

     total energy              =  -58771.23015732 Ry
     estimated scf accuracy    <       6.59643952 Ry

     iteration #  4     ecut=    40.00 Ry     beta= 0.70
     Davidson diagonalization with overlap
     ethr =  1.04E-04,  avg # of iterations = 11.0

     negative rho (up, down):  1.619E+01 0.000E+00

     total cpu time spent up to now is     3421.4 secs

     total energy              =  -58771.13109618 Ry
     estimated scf accuracy    <       3.22499539 Ry

     iteration #  5     ecut=    40.00 Ry     beta= 0.70
     Davidson diagonalization with overlap
     c_bands:  3 eigenvalues not converged
     ethr =  5.09E-05,  avg # of iterations = 16.2

     negative rho (up, down):  1.580E+01 0.000E+00

     total cpu time spent up to now is     4152.6 secs

     total energy              =  -58771.07565460 Ry
     estimated scf accuracy    <       1.98431515 Ry

     iteration #  6     ecut=    40.00 Ry     beta= 0.70
     Davidson diagonalization with overlap
     c_bands:  2 eigenvalues not converged
     ethr =  3.13E-05,  avg # of iterations = 20.0

     negative rho (up, down):  1.581E+01 0.000E+00

     total cpu time spent up to now is     5021.4 secs

     total energy              =  -58771.05069125 Ry
     estimated scf accuracy    <       1.92845051 Ry

     iteration #  7     ecut=    40.00 Ry     beta= 0.70
     Davidson diagonalization with overlap
     ethr =  3.04E-05,  avg # of iterations =  4.0

     negative rho (up, down):  1.565E+01 0.000E+00

     total cpu time spent up to now is     5598.4 secs

     total energy              =  -58771.24139622 Ry
     estimated scf accuracy    <       1.99080912 Ry

     iteration #  8     ecut=    40.00 Ry     beta= 0.70
     Davidson diagonalization with overlap
     ethr =  3.04E-05,  avg # of iterations =  3.2

     negative rho (up, down):  1.638E+01 0.000E+00

     total cpu time spent up to now is     6183.3 secs

     total energy              =  -58770.76111195 Ry
     estimated scf accuracy    <       3.39905910 Ry

     iteration #  9     ecut=    40.00 Ry     beta= 0.70
     Davidson diagonalization with overlap
     ethr =  3.04E-05,  avg # of iterations = 14.0

     negative rho (up, down):  1.618E+01 0.000E+00

     total cpu time spent up to now is     7492.9 secs

     total energy              =  -58771.09964373 Ry
     estimated scf accuracy    <       6.27132873 Ry

     iteration # 10     ecut=    40.00 Ry     beta= 0.70
     Davidson diagonalization with overlap
     ethr =  3.04E-05,  avg # of iterations =  1.0

     negative rho (up, down):  1.662E+01 0.000E+00

     total cpu time spent up to now is     7972.0 secs

     total energy              =  -58770.99782502 Ry
     estimated scf accuracy    <       2.88073150 Ry

     iteration # 11     ecut=    40.00 Ry     beta= 0.70
     Davidson diagonalization with overlap
     ethr =  3.04E-05,  avg # of iterations =  1.0

     negative rho (up, down):  1.585E+01 0.000E+00

     total cpu time spent up to now is     8496.0 secs

     total energy              =  -58770.91014140 Ry
     estimated scf accuracy    <       1.93817852 Ry

     iteration # 12     ecut=    40.00 Ry     beta= 0.70
     Davidson diagonalization with overlap
     ethr =  3.04E-05,  avg # of iterations =  3.0

     negative rho (up, down):  1.663E+01 0.000E+00

     total cpu time spent up to now is     9083.6 secs

     total energy              =  -58770.84347369 Ry
     estimated scf accuracy    <       0.47450343 Ry

     iteration # 13     ecut=    40.00 Ry     beta= 0.70
     Davidson diagonalization with overlap
     c_bands:  1 eigenvalues not converged
     c_bands:  3 eigenvalues not converged
     ethr =  7.49E-06,  avg # of iterations = 15.8

     negative rho (up, down):  1.629E+01 0.000E+00

     total cpu time spent up to now is     9950.6 secs

     total energy              =  -58770.86822921 Ry
     estimated scf accuracy    <       0.12238725 Ry

     iteration # 14     ecut=    40.00 Ry     beta= 0.70
     Davidson diagonalization with overlap
     c_bands:  1 eigenvalues not converged
     c_bands:  1 eigenvalues not converged
     c_bands:  3 eigenvalues not converged
     c_bands:  4 eigenvalues not converged
     ethr =  1.93E-06,  avg # of iterations = 20.0

     negative rho (up, down):  1.624E+01 0.000E+00

     total cpu time spent up to now is    11084.7 secs

     total energy              =  -58770.88546907 Ry
     estimated scf accuracy    <       0.63467169 Ry

     iteration # 15     ecut=    40.00 Ry     beta= 0.70
     Davidson diagonalization with overlap
     c_bands:  1 eigenvalues not converged
     ethr =  1.93E-06,  avg # of iterations = 15.0

     negative rho (up, down):  1.625E+01 0.000E+00

     total cpu time spent up to now is    11952.3 secs

     total energy              =  -58770.84089572 Ry
     estimated scf accuracy    <       0.30362591 Ry

     iteration # 16     ecut=    40.00 Ry     beta= 0.70
     Davidson diagonalization with overlap
     c_bands:  2 eigenvalues not converged
     ethr =  1.93E-06,  avg # of iterations = 12.5

     negative rho (up, down):  1.595E+01 0.000E+00

     total cpu time spent up to now is    12789.1 secs

     total energy              =  -58770.85310457 Ry
     estimated scf accuracy    <       0.02097743 Ry

     iteration # 17     ecut=    40.00 Ry     beta= 0.70
     Davidson diagonalization with overlap
     ethr =  3.31E-07,  avg # of iterations =  9.5

     negative rho (up, down):  1.581E+01 0.000E+00

     total cpu time spent up to now is    13488.3 secs

     total energy              =  -58770.85151519 Ry
     estimated scf accuracy    <       0.02103334 Ry

     iteration # 18     ecut=    40.00 Ry     beta= 0.70
     Davidson diagonalization with overlap
     ethr =  3.31E-07,  avg # of iterations = 12.2

     negative rho (up, down):  1.570E+01 0.000E+00

     total cpu time spent up to now is    14222.1 secs

     total energy              =  -58770.85308663 Ry
     estimated scf accuracy    <       0.00156058 Ry

     iteration # 19     ecut=    40.00 Ry     beta= 0.70
     Davidson diagonalization with overlap
     c_bands:  1 eigenvalues not converged
     ethr =  2.46E-08,  avg # of iterations = 16.2

     negative rho (up, down):  1.569E+01 0.000E+00

     total cpu time spent up to now is    15072.8 secs

     total energy              =  -58770.85342989 Ry
     estimated scf accuracy    <       0.00156910 Ry

     iteration # 20     ecut=    40.00 Ry     beta= 0.70
     Davidson diagonalization with overlap
     ethr =  2.46E-08,  avg # of iterations =  5.8

     negative rho (up, down):  1.567E+01 0.000E+00

     total cpu time spent up to now is    15713.7 secs

     total energy              =  -58770.85336782 Ry
     estimated scf accuracy    <       0.00242883 Ry

     iteration # 21     ecut=    40.00 Ry     beta= 0.70
     Davidson diagonalization with overlap
     ethr =  2.46E-08,  avg # of iterations =  6.0

     negative rho (up, down):  1.567E+01 0.000E+00

     total cpu time spent up to now is    16321.1 secs

     total energy              =  -58770.85352798 Ry
     estimated scf accuracy    <       0.00005322 Ry

     iteration # 22     ecut=    40.00 Ry     beta= 0.70
     Davidson diagonalization with overlap
     ethr =  8.40E-10,  avg # of iterations =  5.2

     negative rho (up, down):  1.567E+01 0.000E+00

     total cpu time spent up to now is    17061.4 secs

     total energy              =  -58770.85357448 Ry
     estimated scf accuracy    <       0.00008706 Ry

     iteration # 23     ecut=    40.00 Ry     beta= 0.70
     Davidson diagonalization with overlap
     ethr =  8.40E-10,  avg # of iterations =  2.5

     negative rho (up, down):  1.567E+01 0.000E+00

     total cpu time spent up to now is    17712.0 secs

     total energy              =  -58770.85358349 Ry
     estimated scf accuracy    <       0.00000689 Ry

     iteration # 24     ecut=    40.00 Ry     beta= 0.70
     Davidson diagonalization with overlap
     ethr =  1.09E-10,  avg # of iterations =  3.8

     negative rho (up, down):  1.567E+01 0.000E+00

     total cpu time spent up to now is    18337.2 secs

     End of self-consistent calculation

          k = 0.1667 0.1925 0.0000 (440477 PWs)   bands (ev):

    -0.8129  -0.5875  -0.5139  -0.4713  -0.3680  -0.2963  -0.2496  -0.2262
    -0.1778  -0.0866  -0.0349  -0.0152   0.0255   0.0345   0.1020   0.1858
     0.2374   0.2427   0.2538   0.3063   0.3117   0.4511   0.4901   0.4985
     0.5171   0.5492   0.5641   0.5802   0.6015   0.6351   0.7098   0.7196
     0.7501   0.7753   0.7833   0.8164   0.8245   0.8362   0.8821   0.9223
     0.9341   0.9540   0.9651   0.9952   1.0080   1.0167   1.0199   1.0260
     1.0820   1.0910   1.1251   1.1389   1.1688   1.1954   1.2051   1.2160
     1.2464   1.2569   1.2644   1.3264   1.3387   1.3393   1.3532   1.3568
     1.3854   1.4019   1.4024   1.4232   1.4409   1.4435   1.4556   1.4599
     1.4638   1.4903   1.5058   1.5099   1.5408   1.5527   1.5573   1.5603
     1.5649   1.5684   1.5733   1.5752   1.5835   1.5900   1.5912   1.5993
     1.6036   1.6066   1.6083   1.6143   1.6195   1.6433   1.6471   1.6533
     1.6540   1.6633   1.6924   1.6937   1.6938   1.7081   1.7091   1.7229
     1.7255   1.7261   1.7270   1.7428   1.7517   1.7548   1.7556   1.7632
     1.7736   1.7753   1.7935   1.7976   1.8040   1.8168   1.8291   1.8301
     1.8301   1.8310   1.8328   1.8361   1.8384   1.8477   1.8506   1.8517
     1.8522   1.8536   1.8547   1.8556   1.8571   1.8582   1.8642   1.8683
     1.8813   1.8822   1.8898   1.8926   1.8937   1.8950   1.9103   1.9117
     1.9218   1.9269   1.9301   1.9311   1.9355   1.9393   1.9417   1.9443
     1.9455   1.9455   1.9476   1.9509   1.9646   1.9649   1.9686   1.9730
     1.9731   1.9844   1.9848   1.9865   1.9923   1.9973   1.9991   1.9998
     2.0084   2.0089   2.0096   2.0105   2.0134   2.0150   2.0218   2.0285
     2.0303   2.0337   2.0383   2.0384   2.0406   2.0427   2.0435   2.0467
     2.0560   2.0593   2.0658   2.0743   2.0845   2.0855   2.0863   2.0883
     2.0886   2.0946   2.0983   2.1028   2.1078   2.1097   2.1107   2.1115
     2.1130   2.1221   2.1228   2.1255   2.1272   2.1292   2.1327   2.1379
     2.1387   2.1388   2.1414   2.1441   2.1459   2.1467   2.1516   2.1521
     2.1578   2.1596   2.1617   2.1636   2.1657   2.1665   2.1685   2.1689
     2.1715   2.1764   2.1783   2.1825   2.1857   2.1962   2.1976   2.1984
     2.1986   2.2007   2.2044   2.2125   2.2151   2.2168   2.2188   2.2191
     2.2246   2.2258   2.2293   2.2303   2.2308   2.2314   2.2340   2.2343
     2.2357   2.2382   2.2416   2.2418   2.2430   2.2442   2.2445   2.2450
     2.2478   2.2487   2.2513   2.2591   2.2735   2.2775   2.2804   2.2807
     2.2887   2.2893   2.2907   2.2930   2.3020   2.3028   2.3038   2.3046
     2.3081   2.3081   2.3087   2.3100   2.3148   2.3161   2.3180   2.3181
     2.3195   2.3230   2.3254   2.3261   2.3263   2.3295   2.3319   2.3319
     2.3328   2.3338   2.3376   2.3383   2.3405   2.3434   2.3437   2.3439
     2.3450   2.3478   2.3495   2.3503   2.3550   2.3554   2.3559   2.3581
     2.3628   2.3654   2.3700   2.3702   2.3710   2.3756   2.3765   2.3808
     2.3811   2.3825   2.3833   2.3856   2.3916   2.3930   2.3992   2.4010
     2.4064   2.4081   2.4116   2.4119   2.4123   2.4163   2.4166   2.4224
     2.4231   2.4263   2.4263   2.4265   2.4283   2.4284   2.4285   2.4302
     2.4306   2.4307   2.4338   2.4366   2.4394   2.4396   2.4408   2.4483
     2.4494   2.4502   2.4516   2.4523   2.4563   2.4603   2.4620   2.4666
     2.4671   2.4677   2.4686   2.4700   2.4744   2.4759   2.4759   2.4766
     2.4837   2.4838   2.4852   2.4858   2.4878   2.4887   2.4890   2.4953
     2.4986   2.5039   2.5089   2.5096   2.5109   2.5136   2.5136   2.5152
     2.5197   2.5203   2.5245   2.5291   2.5323   2.5358   2.5371   2.5376
     2.5380   2.5394   2.5431   2.5463   2.5474   2.5477   2.5513   2.5522
     2.5534   2.5556   2.5580   2.5602   2.5628   2.5643   2.5647   2.5681
     2.5681   2.5683   2.5688   2.5742   2.5757   2.5777   2.5778   2.5801
     2.5802   2.5813   2.5826   2.5868   2.5881   2.5905   2.5916   2.5924
     2.5928   2.5933   2.5945   2.5963   2.5982   2.5986   2.5987   2.5992
     2.6022   2.6073   2.6140   2.6144   2.6170   2.6192   2.6208   2.6208
     2.6211   2.6234   2.6339   2.6352   2.6416   2.6433   2.6454   2.6454
     2.6541   2.6550   2.6575   2.6591   2.6600   2.6614   2.6637   2.6638
     2.6673   2.6684   2.6688   2.6701   2.6731   2.6784   2.6792   2.6806
     2.6825   2.6825   2.6847   2.6896   2.6916   2.6933   2.6942   2.6981
     2.6990   2.7013   2.7041   2.7048   2.7050   2.7086   2.7104   2.7149
     2.7164   2.7166   2.7198   2.7199   2.7237   2.7238   2.7268   2.7284
     2.7309   2.7329   2.7341   2.7341   2.7430   2.7451   2.7477   2.7542
     2.7552   2.7572   2.7591   2.7601   2.7644   2.7659   2.7659   2.7667
     2.7676   2.7690   2.7718   2.7725   2.7748   2.7749   2.7757   2.7782
     2.7810   2.7811   2.7828   2.7842   2.7849   2.7855   2.7855   2.7884
     2.7907   2.7928   2.7938   2.7957   2.8062   2.8066   2.8068   2.8072
     2.8081   2.8125   2.8125   2.8136   2.8148   2.8148   2.8174   2.8194
     2.8203   2.8213   2.8247   2.8345   2.8367   2.8371   2.8467   2.8490
     2.8492   2.8509   2.8532   2.8555   2.8555   2.8572   2.8574   2.8589
     2.8595   2.8601   2.8609   2.8679   2.8721   2.8755   2.8759   2.8791
     2.8833   2.8852   2.8935   2.8938   2.8949   2.8982   2.8987   2.9033
     2.9118   2.9119   2.9154   2.9182   2.9197   2.9209   2.9215   2.9229
     2.9232   2.9295   2.9313   2.9327   2.9350   2.9371   2.9374   2.9404
     2.9424   2.9434   2.9479   2.9504   2.9538   2.9565   2.9568   2.9592
     2.9595   2.9599   2.9613   2.9794   2.9795   2.9841   2.9842   2.9870
     2.9893   2.9975   2.9984   3.0087   3.0113   3.0220   3.0238   3.0440
     3.0440   3.0498   3.0503   3.0562   3.0564   3.0566   3.0593   3.0638
     3.0663   3.0676   3.0681   3.0692   3.0695   3.0698   3.0727   3.0778
     3.0805   3.0815   3.0828   3.0835   3.0835   3.0850   3.0852   3.0934
     3.0935   3.0968   3.1030   3.1049   3.1074   3.1110   3.1118   3.1120
     3.1143   3.1161   3.1172   3.1200   3.1222   3.1291   3.1308   3.1332
     3.1380   3.1393   3.1401   3.1428   3.1430   3.1480   3.1522   3.1539
     3.1564   3.1620   3.1631   3.1656   3.1675   3.1696   3.1696   3.1761
     3.1761   3.1772   3.1789   3.1802   3.1811   3.1813   3.1870   3.1882
     3.1909   3.1924   3.1929   3.1941   3.1947   3.1966   3.1967   3.1989
     3.1993   3.2022   3.2022   3.2065   3.2088   3.2089   3.2124   3.2140
     3.2154   3.2233   3.2250   3.2254   3.2283   3.2303   3.2319   3.2335
     3.2337   3.2373   3.2418   3.2453   3.2461   3.2477   3.2507   3.2559
     3.2568   3.2614   3.2629   3.2640   3.2674   3.2743   3.2793   3.2800
     3.2801   3.2818   3.2821   3.2843   3.2885   3.2907   3.2910   3.2914
     3.2927   3.2932   3.2935   3.2947   3.3002   3.3021   3.3062   3.3072
     3.3107   3.3108   3.3115   3.3116   3.3127   3.3160   3.3167   3.3179
     3.3218   3.3229   3.3245   3.3245   3.3250   3.3253   3.3263   3.3273
     3.3277   3.3292   3.3306   3.3319   3.3322   3.3334   3.3366   3.3375
     3.3420   3.3439   3.3476   3.3482   3.3493   3.3499   3.3507   3.3517
     3.3540   3.3551   3.3553   3.3607   3.3607   3.3686   3.3695   3.3733
     3.3733   3.3737   3.3758   3.3759   3.3779   3.3792   3.3797   3.3818
     3.3820   3.3841   3.3984   3.4050   3.4056   3.4062   3.4067   3.4096
     3.4119   3.4120   3.4138   3.4155   3.4162   3.4167   3.4214   3.4219
     3.4263   3.4272   3.4278   3.4311   3.4330   3.4347   3.4352   3.4389
     3.4390   3.4413   3.4415   3.4423   3.4478   3.4485   3.4489   3.4496
     3.4531   3.4541   3.4594   3.4594   3.4632   3.4634   3.4638   3.4643
     3.4649   3.4656   3.4692   3.4696   3.4732   3.4749   3.4750   3.4758
     3.4760   3.4766   3.4789   3.4790   3.4825   3.4826   3.4858   3.4861
     3.4861   3.4863   3.4872   3.4879   3.4911   3.4920   3.4962   3.4975
     3.5023   3.5063   3.5068   3.5072   3.5091   3.5107   3.5121   3.5125
     3.5135   3.5136   3.5150   3.5151   3.5185   3.5187   3.5190   3.5212
     3.5224   3.5267   3.5320   3.5334   3.5360   3.5365   3.5382   3.5387
     3.5390   3.5397   3.5437   3.5480   3.5507   3.5512   3.5538   3.5548
     3.5577   3.5580   3.5629   3.5661   3.5670   3.5690   3.5710   3.5737
     3.5747   3.5763   3.5765   3.5792   3.5802   3.5823   3.5851   3.5853
     3.5856   3.5860   3.5869   3.5909   3.5920   3.5922   3.5935   3.5939
     3.5952   3.5972   3.5983   3.6008   3.6017   3.6018   3.6019   3.6076
     3.6084   3.6090   3.6106   3.6149   3.6199   3.6211   3.6212   3.6239
     3.6244   3.6247   3.6253   3.6260   3.6264   3.6298   3.6326   3.6441
     3.6446   3.6448   3.6469   3.6471   3.6480   3.6482   3.6487   3.6488
     3.6519   3.6569   3.6595   3.6612   3.6620   3.6647   3.6649   3.6665
     3.6673   3.6681   3.6707   3.6743   3.6791   3.6800   3.6801   3.6847
     3.6855   3.6858   3.6888   3.6908   3.6924   3.6934   3.6941   3.6944
     3.6952   3.6962   3.6979   3.6991   3.7031   3.7044   3.7092   3.7116
     3.7152   3.7190   3.7201   3.7210   3.7211   3.7272   3.7305   3.7320
     3.7327   3.7344   3.7350   3.7437   3.7444   3.7454   3.7459   3.7467
     3.7495   3.7504   3.7540   3.7573   3.7575   3.7580   3.7582   3.7593
     3.7595   3.7602   3.7620   3.7657   3.7657   3.7715   3.7726   3.7732
     3.7744   3.7760   3.7760   3.7770   3.7789   3.7853   3.7859   3.7863
     3.7877   3.7886   3.7903   3.7905   3.7921   3.7941   3.7960   3.8015
     3.8051   3.8069   3.8100   3.8108   3.8140   3.8140   3.8140   3.8183
     3.8188   3.8189   3.8196   3.8233   3.8253   3.8267   3.8282   3.8333
     3.8358   3.8360   3.8367   3.8405   3.8435   3.8467   3.8485   3.8493
     3.8494   3.8503   3.8517   3.8525   3.8526   3.8529   3.8556   3.8557
     3.8564   3.8572   3.8576   3.8586   3.8605   3.8614   3.8647   3.8650
     3.8653   3.8663   3.8678   3.8682   3.8697   3.8698   3.8736   3.8738
     3.8751   3.8766   3.8868   3.8904   3.8915   3.8919   3.8922   3.8929
     3.8936   3.8941   3.8953   3.8953   3.8963   3.8975   3.8982   3.9004
     3.9018   3.9021   3.9044   3.9073   3.9080   3.9090   3.9102   3.9156
     3.9156   3.9165   3.9194   3.9197   3.9201   3.9207   3.9215   3.9226
     3.9235   3.9246   3.9261   3.9262   3.9279   3.9292   3.9308   3.9328
     3.9342   3.9346   3.9348   3.9369   3.9377   3.9387   3.9389   3.9409
     3.9448   3.9488   3.9496   3.9530   3.9539   3.9548   3.9550   3.9553
     3.9569   3.9611   3.9636   3.9643   3.9648   3.9648   3.9677   3.9691
     3.9693   3.9700   3.9710   3.9710   3.9724   3.9758   3.9770   3.9785
     3.9800   3.9802   3.9803   3.9836   3.9859   3.9865   3.9878   3.9917
     3.9924   3.9941   3.9944   3.9944   3.9963   3.9985   3.9986   4.0049
     4.0057   4.0058   4.0119   4.0122   4.0122   4.0126   4.0154   4.0156
     4.0160   4.0164   4.0194   4.0210   4.0213   4.0218   4.0236   4.0242
     4.0256   4.0262   4.0265   4.0270   4.0283   4.0287   4.0298   4.0329
     4.0351   4.0369   4.0391   4.0392   4.0418   4.0425   4.0444   4.0457
     4.0464   4.0465   4.0477   4.0502   4.0516   4.0522   4.0531   4.0534
     4.0547   4.0552   4.0579   4.0588   4.0603   4.0633   4.0635   4.0640
     4.0645   4.0663   4.0672   4.0683   4.0686   4.0697   4.0703   4.0710
     4.0732   4.0733   4.0753   4.0765   4.0787   4.0790   4.0802   4.0829
     4.0853   4.0858   4.0868   4.0902   4.0913   4.0916   4.0923   4.0954
     4.0969   4.0979   4.0986   4.0993   4.1008   4.1009   4.1023   4.1050
     4.1067   4.1072   4.1080   4.1084   4.1094   4.1097   4.1101   4.1141
     4.1142   4.1147   4.1176   4.1178   4.1198   4.1203   4.1247   4.1252
     4.1255   4.1297   4.1298   4.1318   4.1337   4.1348   4.1352   4.1355
     4.1358   4.1369   4.1385   4.1386   4.1393   4.1394   4.1400   4.1412
     4.1420   4.1422   4.1425   4.1447   4.1498   4.1500   4.1502   4.1549
     4.1557   4.1567   4.1570   4.1585   4.1587   4.1595   4.1615   4.1624
     4.1625   4.1639   4.1646   4.1650   4.1650   4.1655   4.1657   4.1665
     4.1674   4.1695   4.1703   4.1711   4.1718   4.1723   4.1723   4.1744
     4.1753   4.1755   4.1755   4.1759   4.1783   4.1786   4.1812   4.1816
     4.1817   4.1832   4.1832   4.1832   4.1855   4.1871   4.1874   4.1878
     4.1890   4.1906   4.1907   4.1910   4.1921   4.1936   4.1936   4.1941
     4.1951   4.1967   4.1972   4.1988   4.1995   4.1998   4.1999   4.2004
     4.2007   4.2009   4.2015   4.2022   4.2039   4.2039   4.2051   4.2058
     4.2067   4.2102   4.2118   4.2141   4.2147   4.2152   4.2162   4.2183
     4.2185   4.2187   4.2209   4.2248   4.2250   4.2265   4.2272   4.2309
     4.2317   4.2319   4.2319   4.2337   4.2358   4.2363   4.2369   4.2374
     4.2378   4.2389   4.2406   4.2443   4.2452   4.2467   4.2487   4.2503
     4.2529   4.2537   4.2543   4.2549   4.2560   4.2566   4.2576   4.2579
     4.2579   4.2595   4.2606   4.2612   4.2613   4.2619   4.2626   4.2635
     4.2644   4.2645   4.2647   4.2647   4.2651   4.2654   4.2678   4.2693
     4.2693   4.2701   4.2740   4.2746   4.2758   4.2780   4.2785   4.2794
     4.2795   4.2824   4.2827   4.2887   4.2896   4.2897   4.2897   4.2940
     4.2942   4.2950   4.2951   4.2961   4.2968   4.3003   4.3005   4.3028
     4.3058   4.3062   4.3093   4.3101   4.3113   4.3137   4.3137   4.3145
     4.3148   4.3153   4.3176   4.3185   4.3219   4.3224   4.3225   4.3242
     4.3242   4.3265   4.3275   4.3280   4.3321   4.3330   4.3352   4.3385
     4.3392   4.3395   4.3408   4.3438   4.3447   4.3481   4.3498   4.3505
     4.3537   4.3560   4.3567   4.3579   4.3582   4.3595   4.3626   4.3626
     4.3673   4.3689   4.3692   4.3693   4.3696   4.3704   4.3709   4.3718
     4.3720   4.3762   4.3780   4.3790   4.3807   4.3811   4.3813   4.3816
     4.3823   4.3828   4.3838   4.3853   4.3895   4.3899   4.3899   4.3901
     4.3909   4.3928   4.3938   4.3945   4.3985   4.3996   4.3996   4.4014
     4.4017   4.4033   4.4065   4.4066   4.4081   4.4095   4.4103   4.4111
     4.4116   4.4132   4.4217   4.4229   4.4255   4.4266   4.4267   4.4286
     4.4296   4.4298   4.4315   4.4335   4.4344   4.4364   4.4378   4.4388
     4.4400   4.4415   4.4421   4.4435   4.4443   4.4469   4.4492   4.4513
     4.4515   4.4526   4.4577   4.4591   4.4615   4.4625   4.4625   4.4631
     4.4655   4.4661   4.4667   4.4686   4.4689   4.4711   4.4712   4.4716
     4.4752   4.4782   4.4815   4.4815   4.4816   4.4842   4.4855   4.4876
     4.4907   4.4911   4.4917   4.4935   4.4940   4.4956   4.4957   4.4992
     4.5035   4.5045   4.5050   4.5084   4.5098   4.5128   4.5153   4.5189
     4.5197   4.5198   4.5224   4.5250   4.5280   4.5282   4.5298   4.5304
     4.5336   4.5343   4.5345   4.5356   4.5361   4.5361   4.5363   4.5382
     4.5407   4.5439   4.5483   4.5484   4.5500   4.5500   4.5542   4.5552
     4.5560   4.5612   4.5638   4.5661   4.5662   4.5685   4.5688   4.5744
     4.5768   4.5770   4.5777   4.5788   4.5789   4.5790   4.5806   4.5828
     4.5843   4.5864   4.5867   4.5904   4.5909   4.5915   4.5951   4.5956
     4.5974   4.5980   4.6013   4.6062   4.6079   4.6079   4.6095   4.6095
     4.6122   4.6150   4.6159   4.6167   4.6186   4.6219   4.6227   4.6278
     4.6308   4.6326   4.6326   4.6327   4.6362   4.6397   4.6435   4.6450
     4.6457   4.6476   4.6522   4.6542   4.6545   4.6568   4.6592   4.6621
     4.6622   4.6631   4.6645   4.6664   4.6668   4.6694   4.6720   4.6740
     4.6745   4.6793   4.6804   4.6842   4.6845   4.6860   4.6873   4.6880
     4.6917   4.6918   4.6927   4.6960   4.6975   4.6991   4.6992   4.6992
     4.7018   4.7020   4.7037   4.7085   4.7092   4.7120   4.7145   4.7154
     4.7176   4.7184   4.7189   4.7195   4.7210   4.7212   4.7252   4.7256
     4.7258   4.7271   4.7308   4.7319   4.7320   4.7355   4.7375   4.7447
     4.7457   4.7467   4.7480   4.7490   4.7515   4.7529   4.7556   4.7572
     4.7580   4.7607   4.7613   4.7629   4.7645   4.7650   4.7700   4.7721
     4.7728   4.7729   4.7757   4.7789   4.7843   4.7853   4.7917   4.7950
     4.7974   4.8014   4.8059   4.8103   4.8105   4.8106   4.8114   4.8115
     4.8123   4.8137   4.8151   4.8157   4.8177   4.8210   4.8219   4.8222
     4.8235   4.8239   4.8242   4.8255   4.8261   4.8276   4.8282   4.8289
     4.8301   4.8305   4.8354   4.8404   4.8423   4.8453   4.8460   4.8475
     4.8497   4.8497   4.8509   4.8533   4.8557   4.8572   4.8586   4.8595
     4.8615   4.8660   4.8702   4.8718   4.8721   4.8723   4.8739   4.8767
     4.8787   4.8792   4.8800   4.8810   4.8813   4.8821   4.8835   4.8859
     4.8884   4.8891   4.8919   4.8946   4.8952   4.8962   4.8991   4.9011
     4.9028   4.9029   4.9044   4.9057   4.9067   4.9076   4.9084   4.9095
     4.9100   4.9104   4.9107   4.9118   4.9124   4.9127   4.9185   4.9237
     4.9253   4.9264   4.9275   4.9279   4.9299   4.9354   4.9407   4.9413
     4.9421   4.9425   4.9464   4.9467   4.9476   4.9487   4.9505   4.9535
     4.9543   4.9553   4.9564   4.9568   4.9586   4.9597   4.9600   4.9620
     4.9634   4.9648   4.9688   4.9712   4.9719   4.9724   4.9730   4.9751
     4.9776   4.9778   4.9811   4.9813   4.9814   4.9820   4.9824   4.9837
     4.9899   4.9914   4.9914   4.9931   4.9958   4.9989   4.9991   5.0013
     5.0015   5.0019   5.0022   5.0041   5.0066   5.0078   5.0083   5.0090
     5.0113   5.0118   5.0122   5.0128   5.0147   5.0166   5.0173   5.0192
     5.0229   5.0249   5.0270   5.0294   5.0296   5.0299   5.0307   5.0314
     5.0317   5.0341   5.0342   5.0351   5.0353   5.0356   5.0373   5.0377
     5.0385   5.0424   5.0458   5.0465   5.0472   5.0539   5.0544   5.0558
     5.0566   5.0587   5.0605   5.0607   5.0632   5.0689   5.0696   5.0720
     5.0734   5.0744   5.0755   5.0784   5.0797   5.0822   5.0845   5.0845
     5.0853   5.0856   5.0866   5.0882   5.0935   5.0945   5.0947   5.0993
     5.0995   5.1038   5.1088   5.1095   5.1108   5.1116   5.1157   5.1176
     5.1189   5.1192   5.1205   5.1212   5.1224   5.1237   5.1244   5.1281
     5.1293   5.1316   5.1336   5.1353   5.1354   5.1379   5.1385   5.1400
     5.1406   5.1419   5.1423   5.1429   5.1486   5.1487   5.1513   5.1514
     5.1520   5.1541   5.1554   5.1599   5.1604   5.1611   5.1619   5.1733
     5.1786   5.1796   5.1804   5.1815   5.1818   5.1827   5.1834   5.1854
     5.1878   5.1880   5.1885   5.1886   5.1887   5.1900   5.1902   5.1908
     5.1909   5.1920   5.1930   5.1935   5.1993   5.1999   5.2002   5.2005
     5.2011   5.2014   5.2018   5.2044   5.2071   5.2128   5.2160   5.2161
     5.2191   5.2221   5.2229   5.2231   5.2236   5.2243   5.2245   5.2250
     5.2262   5.2285   5.2293   5.2294   5.2311   5.2317   5.2317   5.2321
     5.2363   5.2364   5.2383   5.2386   5.2390   5.2392   5.2402   5.2410
     5.2425   5.2446   5.2448   5.2463   5.2467   5.2497   5.2504   5.2506
     5.2511   5.2562   5.2586   5.2591   5.2593   5.2606   5.2615   5.2622
     5.2646   5.2650   5.2662   5.2675   5.2679   5.2688   5.2689   5.2704
     5.2733   5.2741   5.2742   5.2746   5.2746   5.2755   5.2769   5.2771
     5.2797   5.2829   5.2835   5.2855   5.2858   5.2859   5.2874   5.2887
     5.2963   5.2972   5.2985   5.2994   5.3006   5.3053   5.3120   5.3155
     5.3163   5.3190   5.3199   5.3220   5.3232   5.3250   5.3266   5.3270
     5.3274   5.3283   5.3309   5.3312   5.3322   5.3322   5.3344   5.3352
     5.3363   5.3371   5.3383   5.3403   5.3444   5.3447   5.3473   5.3489
     5.3493   5.3511   5.3517   5.3522   5.3523   5.3538   5.3545   5.3557
     5.3570   5.3582   5.3590   5.3591   5.3608   5.3613   5.3631   5.3643
     5.3673   5.3689   5.3695   5.3731   5.3745   5.3752   5.3752   5.3762
     5.3763   5.3767   5.3790   5.3797   5.3811   5.3822   5.3878   5.3883
     5.3898   5.3901   5.3916   5.3932   5.3938   5.3939   5.3952   5.3952
     5.3989   5.4029   5.4035   5.4065   5.4065   5.4086   5.4092   5.4131
     5.4135   5.4141   5.4168   5.4188   5.4191   5.4199   5.4213   5.4241
     5.4281   5.4294   5.4300   5.4315   5.4317   5.4318   5.4329   5.4342
     5.4353   5.4379   5.4398   5.4443   5.4455   5.4461   5.4478   5.4508
     5.4520   5.4525   5.4535   5.4535   5.4563   5.4577   5.4582   5.4593
     5.4608   5.4616   5.4624   5.4670   5.4683   5.4729   5.4743   5.4746
     5.4746   5.4757   5.4759   5.4785   5.4785   5.4793   5.4819   5.4835
     5.4863   5.4869   5.4888   5.4896   5.4930   5.4950   5.4951   5.4962
     5.4969   5.5071   5.5076   5.5077   5.5089   5.5110   5.5124   5.5136
     5.5164   5.5165   5.5186   5.5216   5.5244   5.5266   5.5276   5.5276
     5.5319   5.5322   5.5325   5.5334   5.5351   5.5351   5.5352   5.5355
     5.5360   5.5372   5.5392   5.5400   5.5425   5.5429   5.5455   5.5462
[...]
     atom  346 type  1   force =     0.00000244   -0.00019589    0.00054573
     atom  347 type  1   force =    -0.00000244   -0.00019589    0.00054573
     atom  348 type  1   force =    -0.00000178   -0.00019480    0.00054580
     atom  349 type  1   force =     0.00000179   -0.00019476    0.00054588
     atom  350 type  1   force =     0.00000178   -0.00019480    0.00054581
     atom  351 type  1   force =     0.00000244   -0.00019584    0.00054578
     atom  352 type  1   force =     0.00000244   -0.00019589    0.00054572
     atom  353 type  1   force =     0.00000000    0.00045329    0.00049437
     atom  354 type  1   force =     0.00000000    0.00045325    0.00049433
     atom  355 type  1   force =    -0.00000330    0.00045410    0.00049457
     atom  356 type  1   force =    -0.00000329    0.00045406    0.00049453
     atom  357 type  1   force =    -0.00000000    0.00045351    0.00049398
     atom  358 type  1   force =     0.00000329    0.00045409    0.00049457
     atom  359 type  1   force =     0.00000000    0.00045326    0.00049435
     atom  360 type  1   force =    -0.00000236   -0.00028634    0.00072164
     atom  361 type  1   force =    -0.00000245   -0.00028649    0.00072269
     atom  362 type  1   force =     0.00000243   -0.00028648    0.00072269
     atom  363 type  1   force =     0.00000000    0.00045322    0.00049435
     atom  364 type  1   force =    -0.00000331    0.00045405    0.00049457
     atom  365 type  1   force =    -0.00000330    0.00045403    0.00049454
     atom  366 type  1   force =    -0.00000001    0.00045347    0.00049398
     atom  367 type  1   force =     0.00000000    0.00045346    0.00049396
     atom  368 type  1   force =     0.00000330    0.00045405    0.00049455
     atom  369 type  1   force =     0.00000330    0.00045403    0.00049453
     atom  370 type  1   force =     0.00000000    0.00045324    0.00049432
     atom  371 type  1   force =     0.00000000    0.00045324    0.00049435
     atom  372 type  1   force =     0.00000000    0.00045323    0.00049433
     atom  373 type  1   force =    -0.00000329    0.00045406    0.00049453
     atom  374 type  1   force =    -0.00000330    0.00045405    0.00049455
     atom  375 type  1   force =    -0.00000330    0.00045403    0.00049453
     atom  376 type  1   force =     0.00000000    0.00045348    0.00049396
     atom  377 type  1   force =     0.00000001    0.00045347    0.00049398
     atom  378 type  1   force =     0.00000330    0.00045410    0.00049457
     atom  379 type  1   force =     0.00000329    0.00045406    0.00049453
     atom  380 type  1   force =     0.00000331    0.00045405    0.00049457
     atom  381 type  1   force =    -0.00000236   -0.00028634    0.00072163
     atom  382 type  1   force =    -0.00000238   -0.00028638    0.00072170
     atom  383 type  1   force =    -0.00000239   -0.00028644    0.00072167
     atom  384 type  1   force =    -0.00000245   -0.00028648    0.00072268
     atom  385 type  1   force =    -0.00000245   -0.00028652    0.00072272
     atom  386 type  1   force =    -0.00000243   -0.00028659    0.00072270
     atom  387 type  1   force =     0.00000244   -0.00028649    0.00072266
     atom  388 type  1   force =     0.00000243   -0.00028652    0.00072273
     atom  389 type  1   force =     0.00000242   -0.00028659    0.00072269
     atom  390 type  1   force =     0.00000235   -0.00028634    0.00072162
     atom  391 type  1   force =     0.00000238   -0.00028634    0.00072162
     atom  392 type  1   force =     0.00000238   -0.00028639    0.00072168
     atom  393 type  1   force =     0.00000237   -0.00028643    0.00072165
     atom  394 type  1   force =    -0.00000235   -0.00028634    0.00072162
     atom  395 type  1   force =    -0.00000238   -0.00028634    0.00072162
     atom  396 type  1   force =    -0.00000238   -0.00028639    0.00072168
     atom  397 type  1   force =    -0.00000243   -0.00028648    0.00072269
     atom  398 type  1   force =    -0.00000244   -0.00028649    0.00072266
     atom  399 type  1   force =    -0.00000243   -0.00028652    0.00072273
     atom  400 type  1   force =     0.00000245   -0.00028649    0.00072269
     atom  401 type  1   force =     0.00000245   -0.00028648    0.00072268
     atom  402 type  1   force =     0.00000245   -0.00028652    0.00072272
     atom  403 type  1   force =     0.00000236   -0.00028634    0.00072164
     atom  404 type  1   force =     0.00000236   -0.00028634    0.00072163
     atom  405 type  1   force =     0.00000000    0.00045323    0.00049437
     atom  406 type  1   force =    -0.00000000    0.00045348    0.00049396
     atom  407 type  1   force =     0.00000329    0.00045406    0.00049453
     atom  408 type  1   force =    -0.00000329    0.00045409    0.00049457
     atom  409 type  1   force =     0.00000000    0.00045351    0.00049398
     atom  410 type  1   force =    -0.00000237   -0.00028643    0.00072165
     atom  411 type  1   force =    -0.00000242   -0.00028659    0.00072269
     atom  412 type  1   force =     0.00000238   -0.00028638    0.00072170
     atom  413 type  1   force =    -0.00000000    0.00045346    0.00049396
     atom  414 type  1   force =     0.00000330    0.00045403    0.00049454
     atom  415 type  1   force =     0.00000243   -0.00028659    0.00072270
     atom  416 type  1   force =     0.00000239   -0.00028644    0.00072167
     atom  417 type  1   force =    -0.00000161   -0.00056049    0.00382180
     atom  418 type  1   force =    -0.00000111   -0.00056094    0.00382121
     atom  419 type  1   force =     0.00000110   -0.00056090    0.00382116
     atom  420 type  1   force =     0.00000162   -0.00056061    0.00382169
     atom  421 type  1   force =    -0.00000162   -0.00056061    0.00382169
     atom  422 type  1   force =    -0.00000109   -0.00056101    0.00382116
     atom  423 type  1   force =     0.00000114   -0.00056099    0.00382111
     atom  424 type  1   force =     0.00000161   -0.00056060    0.00382164
     atom  425 type  1   force =    -0.00000257    0.00053440   -0.00459511
     atom  426 type  1   force =    -0.00000002    0.00053551   -0.00459549
     atom  427 type  1   force =     0.00000256    0.00053456   -0.00459515
     atom  428 type  1   force =     0.00000000    0.00053342   -0.00459455
     atom  429 type  1   force =    -0.00000257    0.00053440   -0.00459523
     atom  430 type  1   force =     0.00000002    0.00053538   -0.00459561
     atom  431 type  1   force =     0.00000258    0.00053440   -0.00459518
     atom  432 type  1   force =    -0.00000161   -0.00056060    0.00382164
     atom  433 type  1   force =    -0.00000162   -0.00056063    0.00382172
     atom  434 type  1   force =    -0.00000159   -0.00056054    0.00382171
     atom  435 type  1   force =    -0.00000114   -0.00056099    0.00382111
     atom  436 type  1   force =    -0.00000113   -0.00056102    0.00382116
     atom  437 type  1   force =     0.00000109   -0.00056104    0.00382107
     atom  438 type  1   force =     0.00000109   -0.00056101    0.00382116
     atom  439 type  1   force =     0.00000159   -0.00056064    0.00382162
     atom  440 type  1   force =     0.00000159   -0.00056054    0.00382175
     atom  441 type  1   force =    -0.00000159   -0.00056064    0.00382162
     atom  442 type  1   force =    -0.00000109   -0.00056104    0.00382107
     atom  443 type  1   force =     0.00000113   -0.00056102    0.00382116
     atom  444 type  1   force =    -0.00000258    0.00053440   -0.00459518
     atom  445 type  1   force =    -0.00000257    0.00053457   -0.00459513
     atom  446 type  1   force =    -0.00000257    0.00053442   -0.00459515
     atom  447 type  1   force =    -0.00000002    0.00053538   -0.00459561
     atom  448 type  1   force =     0.00000000    0.00053536   -0.00459550
     atom  449 type  1   force =     0.00000257    0.00053440   -0.00459523
     atom  450 type  1   force =     0.00000256    0.00053444   -0.00459513
     atom  451 type  1   force =     0.00000000    0.00053326   -0.00459459
     atom  452 type  1   force =     0.00000000    0.00053332   -0.00459456
     atom  453 type  1   force =    -0.00000256    0.00053456   -0.00459515
     atom  454 type  1   force =     0.00000002    0.00053551   -0.00459549
     atom  455 type  1   force =     0.00000257    0.00053457   -0.00459513
     atom  456 type  1   force =     0.00000000    0.00053330   -0.00459464
     atom  457 type  1   force =    -0.00000114   -0.00056097    0.00382117
     atom  458 type  1   force =     0.00000110   -0.00056094    0.00382117
     atom  459 type  1   force =     0.00000160   -0.00056054    0.00382173
     atom  460 type  1   force =    -0.00000159   -0.00056054    0.00382175
     atom  461 type  1   force =    -0.00000160   -0.00056054    0.00382173
     atom  462 type  1   force =    -0.00000110   -0.00056090    0.00382116
     atom  463 type  1   force =    -0.00000110   -0.00056094    0.00382117
     atom  464 type  1   force =     0.00000111   -0.00056094    0.00382121
     atom  465 type  1   force =     0.00000114   -0.00056097    0.00382117
     atom  466 type  1   force =     0.00000162   -0.00056063    0.00382172
     atom  467 type  1   force =     0.00000161   -0.00056049    0.00382180
     atom  468 type  1   force =     0.00000159   -0.00056054    0.00382171
     atom  469 type  1   force =    -0.00000002    0.00053537   -0.00459557
     atom  470 type  1   force =     0.00000257    0.00053443   -0.00459519
     atom  471 type  1   force =     0.00000000    0.00053328   -0.00459460
     atom  472 type  1   force =    -0.00000256    0.00053444   -0.00459513
     atom  473 type  1   force =    -0.00000257    0.00053443   -0.00459519
     atom  474 type  1   force =    -0.00000000    0.00053536   -0.00459550
     atom  475 type  1   force =     0.00000002    0.00053537   -0.00459557
     atom  476 type  1   force =     0.00000257    0.00053440   -0.00459511
     atom  477 type  1   force =     0.00000257    0.00053442   -0.00459515
     atom  478 type  1   force =     0.00000000    0.00053344   -0.00459454
     atom  479 type  1   force =     0.00000000    0.00053331   -0.00459455
     atom  480 type  1   force =     0.00000000    0.00053333   -0.00459457
     atom  481 type  1   force =    -0.00000263   -0.00335295    0.01651628
     atom  482 type  1   force =     0.00000002   -0.00335301    0.01651563
     atom  483 type  1   force =     0.00000270   -0.00335287    0.01651610
     atom  484 type  1   force =     0.00000000   -0.00335256    0.01651784
     atom  485 type  1   force =    -0.00000270   -0.00335287    0.01651610
     atom  486 type  1   force =     0.00000004   -0.00335292    0.01651534
     atom  487 type  1   force =     0.00000269   -0.00335289    0.01651602
     atom  488 type  1   force =     0.00000000   -0.00335262    0.01651778
     atom  489 type  1   force =    -0.00000132    0.00159406    0.00960220
     atom  490 type  1   force =    -0.00000132    0.00159551    0.00959907
     atom  491 type  1   force =     0.00000128    0.00159556    0.00959899
     atom  492 type  1   force =     0.00000128    0.00159417    0.00960220
     atom  493 type  1   force =    -0.00000132    0.00159423    0.00960202
     atom  494 type  1   force =    -0.00000132    0.00159552    0.00959890
     atom  495 type  1   force =     0.00000139    0.00159553    0.00959889
     atom  496 type  1   force =    -0.00000269   -0.00335289    0.01651602
     atom  497 type  1   force =    -0.00000265   -0.00335292    0.01651619
     atom  498 type  1   force =    -0.00000267   -0.00335305    0.01651611
     atom  499 type  1   force =    -0.00000004   -0.00335292    0.01651534
     atom  500 type  1   force =    -0.00000001   -0.00335290    0.01651556
     atom  501 type  1   force =     0.00000266   -0.00335291    0.01651593
     atom  502 type  1   force =     0.00000260   -0.00335298    0.01651621
     atom  503 type  1   force =     0.00000000   -0.00335265    0.01651764
     atom  504 type  1   force =     0.00000000   -0.00335259    0.01651796
     atom  505 type  1   force =    -0.00000266   -0.00335291    0.01651593
     atom  506 type  1   force =     0.00000001   -0.00335290    0.01651556
     atom  507 type  1   force =     0.00000265   -0.00335292    0.01651619
     atom  508 type  1   force =    -0.00000127    0.00159419    0.00960210
     atom  509 type  1   force =    -0.00000126    0.00159422    0.00960220
     atom  510 type  1   force =    -0.00000130    0.00159412    0.00960202
     atom  511 type  1   force =    -0.00000139    0.00159553    0.00959889
     atom  512 type  1   force =    -0.00000130    0.00159536    0.00959904
     atom  513 type  1   force =     0.00000132    0.00159552    0.00959890
     atom  514 type  1   force =     0.00000130    0.00159538    0.00959905
     atom  515 type  1   force =     0.00000132    0.00159423    0.00960202
     atom  516 type  1   force =     0.00000125    0.00159409    0.00960219
     atom  517 type  1   force =    -0.00000128    0.00159417    0.00960220
     atom  518 type  1   force =    -0.00000128    0.00159556    0.00959899
     atom  519 type  1   force =     0.00000132    0.00159551    0.00959907
     atom  520 type  1   force =     0.00000127    0.00159419    0.00960210
     atom  521 type  1   force =    -0.00000001   -0.00335310    0.01651546
     atom  522 type  1   force =     0.00000261   -0.00335308    0.01651604
     atom  523 type  1   force =     0.00000000   -0.00335275    0.01651782
     atom  524 type  1   force =    -0.00000260   -0.00335298    0.01651621
     atom  525 type  1   force =    -0.00000261   -0.00335308    0.01651604
     atom  526 type  1   force =    -0.00000002   -0.00335301    0.01651563
     atom  527 type  1   force =     0.00000001   -0.00335310    0.01651546
     atom  528 type  1   force =     0.00000263   -0.00335295    0.01651628
     atom  529 type  1   force =     0.00000267   -0.00335305    0.01651611
     atom  530 type  1   force =     0.00000000   -0.00335247    0.01651789
     atom  531 type  1   force =     0.00000000   -0.00335263    0.01651788
     atom  532 type  1   force =     0.00000000   -0.00335273    0.01651781
     atom  533 type  1   force =    -0.00000136    0.00159534    0.00959890
     atom  534 type  1   force =     0.00000129    0.00159537    0.00959888
     atom  535 type  1   force =     0.00000127    0.00159404    0.00960200
     atom  536 type  1   force =    -0.00000125    0.00159409    0.00960219
     atom  537 type  1   force =    -0.00000127    0.00159404    0.00960200
     atom  538 type  1   force =    -0.00000130    0.00159538    0.00959905
     atom  539 type  1   force =    -0.00000129    0.00159537    0.00959888
     atom  540 type  1   force =     0.00000130    0.00159536    0.00959904
     atom  541 type  1   force =     0.00000136    0.00159534    0.00959890
     atom  542 type  1   force =     0.00000126    0.00159422    0.00960220
     atom  543 type  1   force =     0.00000132    0.00159406    0.00960220
     atom  544 type  1   force =     0.00000130    0.00159412    0.00960202
     atom  545 type  1   force =    -0.00000028    0.00164996   -0.02676523
     atom  546 type  1   force =     0.00000119    0.00164756   -0.02676845
     atom  547 type  1   force =    -0.00000116    0.00164775   -0.02676858
     atom  548 type  1   force =     0.00000032    0.00165014   -0.02676516
     atom  549 type  1   force =    -0.00000032    0.00165014   -0.02676516
     atom  550 type  1   force =     0.00000111    0.00164751   -0.02676857
     atom  551 type  1   force =    -0.00000112    0.00164766   -0.02676862
     atom  552 type  1   force =     0.00000028    0.00164998   -0.02676524
     atom  553 type  1   force =    -0.00000028    0.00164998   -0.02676524
     atom  554 type  1   force =    -0.00000034    0.00165004   -0.02676520
     atom  555 type  1   force =    -0.00000027    0.00164982   -0.02676509
     atom  556 type  1   force =     0.00000112    0.00164766   -0.02676862
     atom  557 type  1   force =     0.00000104    0.00164765   -0.02676857
     atom  558 type  1   force =    -0.00000111    0.00164751   -0.02676857
     atom  559 type  1   force =    -0.00000109    0.00164745   -0.02676846
     atom  560 type  1   force =     0.00000021    0.00165000   -0.02676528
     atom  561 type  1   force =     0.00000029    0.00164997   -0.02676518
     atom  562 type  1   force =    -0.00000021    0.00165000   -0.02676528
     atom  563 type  1   force =     0.00000116    0.00164775   -0.02676858
     atom  564 type  1   force =    -0.00000104    0.00164765   -0.02676857
     atom  565 type  1   force =     0.00000025    0.00164974   -0.02676516
     atom  566 type  1   force =    -0.00000025    0.00164974   -0.02676516
     atom  567 type  1   force =     0.00000119    0.00164724   -0.02676853
     atom  568 type  1   force =    -0.00000119    0.00164756   -0.02676845
     atom  569 type  1   force =    -0.00000120    0.00164741   -0.02676847
     atom  570 type  1   force =     0.00000028    0.00164996   -0.02676523
     atom  571 type  1   force =     0.00000027    0.00164982   -0.02676509
     atom  572 type  1   force =     0.00000120    0.00164741   -0.02676847
     atom  573 type  1   force =    -0.00000119    0.00164724   -0.02676853
     atom  574 type  1   force =    -0.00000029    0.00164997   -0.02676518
     atom  575 type  1   force =     0.00000109    0.00164745   -0.02676846
     atom  576 type  1   force =     0.00000034    0.00165004   -0.02676520

     Total force =     0.269675     Total SCF correction =     0.005466
 
     init_run     :    467.49s CPU    248.61s WALL (       1 calls)
     electrons    :  34745.22s CPU  18086.63s WALL (       1 calls)
     forces       :    218.63s CPU    133.42s WALL (       1 calls)

     Called by init_run:
     wfcinit      :    458.99s CPU    241.06s WALL (       1 calls)
     potinit      :      0.59s CPU      0.33s WALL (       1 calls)
     hinit0       :      1.33s CPU      0.78s WALL (       1 calls)

     Called by electrons:
     c_bands      :  32077.54s CPU  16665.99s WALL (      25 calls)
     sum_band     :   2639.07s CPU   1403.20s WALL (      25 calls)
     v_of_rho     :      5.67s CPU      3.03s WALL (      25 calls)
     newd         :     21.74s CPU     13.92s WALL (      25 calls)
     mix_rho      :      1.38s CPU      0.72s WALL (      25 calls)

     Called by c_bands:
     init_us_2    :     30.00s CPU     15.33s WALL (     208 calls)
     cegterg      :  31916.05s CPU  16576.12s WALL (     102 calls)

     Called by *egterg:
     cdiaghg      :   7580.88s CPU   3981.67s WALL (     932 calls)
     h_psi        :  11394.65s CPU   5942.69s WALL (     940 calls)
     s_psi        :   2614.53s CPU   1338.33s WALL (     940 calls)
     g_psi        :      9.17s CPU      4.63s WALL (     834 calls)

     Called by h_psi:
     h_psi:calbec :   2620.99s CPU   1453.37s WALL (     940 calls)
     vloc_psi     :   6274.51s CPU   3198.85s WALL (     940 calls)
     add_vuspsi   :   2482.34s CPU   1276.59s WALL (     940 calls)

     General routines
     calbec       :   3906.04s CPU   2169.22s WALL (    1056 calls)
     fft          :      5.99s CPU      3.10s WALL (     335 calls)
     ffts         :      6.67s CPU      3.46s WALL (      50 calls)
     fftw         :   7469.94s CPU   3808.12s WALL ( 2143544 calls)
     interpolate  :      0.69s CPU      0.36s WALL (      25 calls)
 
     Parallel routines
     fft_scatt_xy :    268.85s CPU    135.92s WALL ( 2143929 calls)
     fft_scatt_yz :   6228.07s CPU   3180.69s WALL ( 2143929 calls)
 
     PWSCF        :      9h50m CPU      5h 7m WALL

 
   This run was terminated on:  19:26:13  23Sep2021            

=------------------------------------------------------------------------------=
   JOB DONE.
=------------------------------------------------------------------------------=
