
     Program PWSCF v.6.6 starts on  8Sep2021 at  5:27:36 

     This program is part of the open-source Quantum ESPRESSO suite
     for quantum simulation of materials; please cite
         "P. Giannozzi et al., J. Phys.:Condens. Matter 21 395502 (2009);
         "P. Giannozzi et al., J. Phys.:Condens. Matter 29 465901 (2017);
          URL http://www.quantum-espresso.org", 
     in publications or presentations arising from this work. More details at
     http://www.quantum-espresso.org/quote

     Parallel version (MPI & OpenMP), running on      96 processor cores
     Number of MPI processes:                12
     Threads/MPI process:                     8

     MPI processes distributed on     2 nodes
     R & G space division:  proc/nbgrp/npool/nimage =      12
     Fft bands division:     nmany     =       1
     Reading input from ../inputs/input_ausurf_144

     Current dimensions of program PWSCF are:
     Max number of different atomic species (ntypx) = 10
     Max number of k-points (npk) =  40000
     Max angular momentum in pseudopotentials (lmaxx) =  3

     Subspace diagonalization in iterative solution of the eigenvalue problem:
     one sub-group per band group will be used
     ELPA distributed-memory algorithm (size of sub-group:  3*  3 procs)

     Found symmetry operation: I + (  0.2500  0.0000  0.0000)
     This is a supercell, fractional translations are disabled
 
     Parallelization info
     --------------------
     sticks:   dense  smooth     PW     G-vecs:    dense   smooth      PW
     Min         999     456    120               237537    73424    9964
     Max        1000     457    121               237544    73434    9971
     Sum       11991    5473   1449              2850479   881145  119607
 

     Title: 
      Ausurf                                                                    


     bravais-lattice index     =            8
     lattice parameter (alat)  =      22.2988  a.u.
     unit-cell volume          =   25777.9743 (a.u.)^3
     number of atoms/cell      =          144
     number of atomic types    =            1
     number of electrons       =      1584.00
     number of Kohn-Sham states=          950
     kinetic-energy cutoff     =      40.0000  Ry
     charge density cutoff     =     350.0000  Ry
     convergence threshold     =      1.0E-06
     mixing beta               =       0.7000
     number of iterations used =            8  TF        mixing
     Exchange-correlation=  SLA  PW   PBE  PBE
                           (   1   4   3   4   0   0   0)

     celldm(1)=  22.298768  celldm(2)=   0.866025  celldm(3)=   2.684575
     celldm(4)=   0.000000  celldm(5)=   0.000000  celldm(6)=   0.000000

     crystal axes: (cart. coord. in units of alat)
               a(1) = (   1.000000   0.000000   0.000000 )  
               a(2) = (   0.000000   0.866025   0.000000 )  
               a(3) = (   0.000000   0.000000   2.684575 )  

     reciprocal axes: (cart. coord. in units 2 pi/alat)
               b(1) = (  1.000000  0.000000  0.000000 )  
               b(2) = (  0.000000  1.154701  0.000000 )  
               b(3) = (  0.000000  0.000000  0.372498 )  


     PseudoPot. # 1 for Au read from file:
     /marconi/home/userexternal/czeni000/dft_src/pseudo/Au.pbe-nd-van.UPF
     MD5 check sum: deb5c07af10777505a79e28f5b4b4115
     Pseudo is Ultrasoft + core correction, Zval = 11.0
     Generated by new atomic code, or converted to UPF format
     Using radial grid of  985 points,  3 beta functions with: 
                l(1) =   1
                l(2) =   2
                l(3) =   2
     Q(r) pseudized with  8 coefficients,  rinner =    1.100   1.100   1.100
                                                       1.100   1.100

     atomic species   valence    mass     pseudopotential
        Au            11.00   196.96000     Au( 1.00)

      2 Sym. Ops. (no inversion) found



   Cartesian axes

     site n.     atom                  positions (alat units)
         1           Au  tau(   1) = (   0.0000000   0.0000000   0.0000000  )
         2           Au  tau(   2) = (   0.2500000   0.0000000   0.0000000  )
         3           Au  tau(   3) = (   0.5000000   0.0000000   0.0000000  )
         4           Au  tau(   4) = (   0.0000000   0.4330127   0.0000000  )
         5           Au  tau(   5) = (   0.7500000   0.0000000   0.0000000  )
         6           Au  tau(   6) = (   0.2500000   0.4330127   0.0000000  )
         7           Au  tau(   7) = (   0.5000000   0.4330127   0.0000000  )
         8           Au  tau(   8) = (   0.7500000   0.4330127   0.0000000  )
         9           Au  tau(   9) = (   0.1250000   0.0721688   0.2041242  )
        10           Au  tau(  10) = (   0.3750000   0.0721688   0.2041242  )
        11           Au  tau(  11) = (   0.6250000   0.0721688   0.2041242  )
        12           Au  tau(  12) = (   0.1250000   0.5051815   0.2041242  )
        13           Au  tau(  13) = (   0.6250000   0.5051815   0.2041242  )
        14           Au  tau(  14) = (   0.8750000   0.0721688   0.2041242  )
        15           Au  tau(  15) = (   0.3750000   0.5051815   0.2041242  )
        16           Au  tau(  16) = (   0.8750000   0.5051815   0.2041242  )
        17           Au  tau(  17) = (   0.2500000   0.2886752   0.2041242  )
        18           Au  tau(  18) = (   0.2500000   0.7216878   0.2041242  )
        19           Au  tau(  19) = (   1.0000000   0.2886752   0.2041242  )
        20           Au  tau(  20) = (   0.5000000   0.2886752   0.2041242  )
        21           Au  tau(  21) = (   0.7500000   0.2886752   0.2041242  )
        22           Au  tau(  22) = (   0.5000000   0.7216878   0.2041242  )
        23           Au  tau(  23) = (   0.7500000   0.7216878   0.2041242  )
        24           Au  tau(  24) = (   1.0000000   0.7216878   0.2041242  )
        25           Au  tau(  25) = (   0.2500000   0.1443375   0.4082483  )
        26           Au  tau(  26) = (   0.6250000   0.3608439   0.4082483  )
        27           Au  tau(  27) = (   0.5000000   0.1443375   0.4082483  )
        28           Au  tau(  28) = (   0.7500000   0.1443375   0.4082483  )
        29           Au  tau(  29) = (   0.1250000   0.3608439   0.4082483  )
        30           Au  tau(  30) = (   0.3750000   0.3608439   0.4082483  )
        31           Au  tau(  31) = (   0.2500000   0.5773503   0.4082483  )
        32           Au  tau(  32) = (   0.5000000   0.5773503   0.4082483  )
        33           Au  tau(  33) = (   0.7500000   0.5773503   0.4082483  )
        34           Au  tau(  34) = (   1.0000000   0.1443375   0.4082483  )
        35           Au  tau(  35) = (   0.1250000   0.7938566   0.4082483  )
        36           Au  tau(  36) = (   0.3750000   0.7938566   0.4082483  )
        37           Au  tau(  37) = (   0.8750000   0.3608439   0.4082483  )
        38           Au  tau(  38) = (   0.8750000   0.7938566   0.4082483  )
        39           Au  tau(  39) = (   1.0000000   0.5773503   0.4082483  )
        40           Au  tau(  40) = (   0.6250000   0.7938566   0.4082483  )
        41           Au  tau(  41) = (   0.6250000   0.2165064   0.6123725  )
        42           Au  tau(  42) = (   0.0000000   0.0000000   0.6123725  )
        43           Au  tau(  43) = (   0.2500000   0.0000000   0.6123725  )
        44           Au  tau(  44) = (   0.5000000   0.0000000   0.6123725  )
        45           Au  tau(  45) = (   0.1250000   0.2165064   0.6123725  )
        46           Au  tau(  46) = (   0.2500000   0.4330127   0.6123725  )
        47           Au  tau(  47) = (   0.5000000   0.4330127   0.6123725  )
        48           Au  tau(  48) = (   0.7500000   0.4330127   0.6123725  )
        49           Au  tau(  49) = (   0.1250000   0.6495191   0.6123725  )
        50           Au  tau(  50) = (   0.3750000   0.2165064   0.6123725  )
        51           Au  tau(  51) = (   0.3750000   0.6495191   0.6123725  )
        52           Au  tau(  52) = (   0.6250000   0.6495191   0.6123725  )
        53           Au  tau(  53) = (   0.8750000   0.2165064   0.6123725  )
        54           Au  tau(  54) = (   0.0000000   0.4330127   0.6123725  )
        55           Au  tau(  55) = (   0.7500000   0.0000000   0.6123725  )
        56           Au  tau(  56) = (   0.8750000   0.6495191   0.6123725  )
        57           Au  tau(  57) = (   0.1250000   0.5051815   0.8164966  )
        58           Au  tau(  58) = (   0.8750000   0.0721688   0.8164966  )
        59           Au  tau(  59) = (   0.5000000   0.2886752   0.8164966  )
        60           Au  tau(  60) = (   0.1250000   0.0721688   0.8164966  )
        61           Au  tau(  61) = (   0.3750000   0.0721688   0.8164966  )
        62           Au  tau(  62) = (   0.3750000   0.5051815   0.8164966  )
        63           Au  tau(  63) = (   0.6250000   0.0721688   0.8164966  )
        64           Au  tau(  64) = (   0.2500000   0.2886752   0.8164966  )
        65           Au  tau(  65) = (   0.2500000   0.7216878   0.8164966  )
        66           Au  tau(  66) = (   0.5000000   0.7216878   0.8164966  )
        67           Au  tau(  67) = (   0.7500000   0.2886752   0.8164966  )
        68           Au  tau(  68) = (   1.0000000   0.2886752   0.8164966  )
        69           Au  tau(  69) = (   0.6250000   0.5051815   0.8164966  )
        70           Au  tau(  70) = (   0.8750000   0.5051815   0.8164966  )
        71           Au  tau(  71) = (   0.7500000   0.7216878   0.8164966  )
        72           Au  tau(  72) = (   1.0000000   0.7216878   0.8164966  )
        73           Au  tau(  73) = (   0.2500000   0.1443375   1.0206208  )
        74           Au  tau(  74) = (   0.5000000   0.1443375   1.0206208  )
        75           Au  tau(  75) = (   0.7500000   0.1443375   1.0206208  )
        76           Au  tau(  76) = (   0.1250000   0.3608439   1.0206208  )
        77           Au  tau(  77) = (   0.3750000   0.3608439   1.0206208  )
        78           Au  tau(  78) = (   0.3750000   0.7938566   1.0206208  )
        79           Au  tau(  79) = (   0.2500000   0.5773503   1.0206208  )
        80           Au  tau(  80) = (   0.5000000   0.5773503   1.0206208  )
        81           Au  tau(  81) = (   0.7500000   0.5773503   1.0206208  )
        82           Au  tau(  82) = (   1.0000000   0.1443375   1.0206208  )
        83           Au  tau(  83) = (   1.0000000   0.5773503   1.0206208  )
        84           Au  tau(  84) = (   0.1250000   0.7938566   1.0206208  )
        85           Au  tau(  85) = (   0.6250000   0.3608439   1.0206208  )
        86           Au  tau(  86) = (   0.6250000   0.7938566   1.0206208  )
        87           Au  tau(  87) = (   0.8750000   0.3608439   1.0206208  )
        88           Au  tau(  88) = (   0.8750000   0.7938566   1.0206208  )
        89           Au  tau(  89) = (   0.0000000   0.0000000   1.2247448  )
        90           Au  tau(  90) = (   0.0000000   0.4330127   1.2247448  )
        91           Au  tau(  91) = (   0.2500000   0.0000000   1.2247448  )
        92           Au  tau(  92) = (   0.2500000   0.4330127   1.2247448  )
        93           Au  tau(  93) = (   0.5000000   0.0000000   1.2247448  )
        94           Au  tau(  94) = (   0.7500000   0.0000000   1.2247448  )
        95           Au  tau(  95) = (   0.1250000   0.2165064   1.2247448  )
        96           Au  tau(  96) = (   0.3750000   0.2165064   1.2247448  )
        97           Au  tau(  97) = (   0.6250000   0.2165064   1.2247448  )
        98           Au  tau(  98) = (   0.1250000   0.6495191   1.2247448  )
        99           Au  tau(  99) = (   0.3750000   0.6495191   1.2247448  )
       100           Au  tau( 100) = (   0.6250000   0.6495191   1.2247448  )
       101           Au  tau( 101) = (   0.8750000   0.2165064   1.2247448  )
       102           Au  tau( 102) = (   0.8750000   0.6495191   1.2247448  )
       103           Au  tau( 103) = (   0.5000000   0.4330127   1.2247448  )
       104           Au  tau( 104) = (   0.7500000   0.4330127   1.2247448  )
       105           Au  tau( 105) = (   0.8750000   0.5051815   1.4288690  )
       106           Au  tau( 106) = (   0.5000000   0.7216878   1.4288690  )
       107           Au  tau( 107) = (   0.7500000   0.7216878   1.4288690  )
       108           Au  tau( 108) = (   1.0000000   0.7216878   1.4288690  )
       109           Au  tau( 109) = (   0.1250000   0.0721688   1.4288690  )
       110           Au  tau( 110) = (   0.1250000   0.5051815   1.4288690  )
       111           Au  tau( 111) = (   0.3750000   0.0721688   1.4288690  )
       112           Au  tau( 112) = (   0.3750000   0.5051815   1.4288690  )
       113           Au  tau( 113) = (   0.6250000   0.0721688   1.4288690  )
       114           Au  tau( 114) = (   0.6250000   0.5051815   1.4288690  )
       115           Au  tau( 115) = (   0.8750000   0.0721688   1.4288690  )
       116           Au  tau( 116) = (   0.2500000   0.2886752   1.4288690  )
       117           Au  tau( 117) = (   0.2500000   0.7216878   1.4288690  )
       118           Au  tau( 118) = (   0.5000000   0.2886752   1.4288690  )
       119           Au  tau( 119) = (   0.7500000   0.2886752   1.4288690  )
       120           Au  tau( 120) = (   1.0000000   0.2886752   1.4288690  )
       121           Au  tau( 121) = (   0.7500000   0.5773503   1.6329931  )
       122           Au  tau( 122) = (   1.0000000   0.5773503   1.6329931  )
       123           Au  tau( 123) = (   0.3750000   0.7938566   1.6329931  )
       124           Au  tau( 124) = (   0.6250000   0.7938566   1.6329931  )
       125           Au  tau( 125) = (   0.8750000   0.7938566   1.6329931  )
       126           Au  tau( 126) = (   0.2500000   0.1443375   1.6329931  )
       127           Au  tau( 127) = (   0.2500000   0.5773503   1.6329931  )
       128           Au  tau( 128) = (   0.5000000   0.1443375   1.6329931  )
       129           Au  tau( 129) = (   0.5000000   0.5773503   1.6329931  )
       130           Au  tau( 130) = (   0.7500000   0.1443375   1.6329931  )
       131           Au  tau( 131) = (   1.0000000   0.1443375   1.6329931  )
       132           Au  tau( 132) = (   0.1250000   0.3608439   1.6329931  )
       133           Au  tau( 133) = (   0.1250000   0.7938566   1.6329931  )
       134           Au  tau( 134) = (   0.3750000   0.3608439   1.6329931  )
       135           Au  tau( 135) = (   0.6250000   0.3608439   1.6329931  )
       136           Au  tau( 136) = (   0.8750000   0.3608439   1.6329931  )
       137           Au  tau( 137) = (   0.6250000   0.6495191   1.8371173  )
       138           Au  tau( 138) = (   0.8750000   0.6495191   1.8371173  )
       139           Au  tau( 139) = (   0.1250000   0.2165064   1.8371173  )
       140           Au  tau( 140) = (   0.1250000   0.6495191   1.8371173  )
       141           Au  tau( 141) = (   0.3750000   0.2165064   1.8371173  )
       142           Au  tau( 142) = (   0.3750000   0.6495191   1.8371173  )
       143           Au  tau( 143) = (   0.6250000   0.2165064   1.8371173  )
       144           Au  tau( 144) = (   0.8750000   0.2165064   1.8371173  )

     number of k points=     9  Marzari-Vanderbilt smearing, width (Ry)=  0.0500
                       cart. coord. in units 2pi/alat
        k(    1) = (   0.0833333   0.0962250   0.0000000), wk =   0.2222222
        k(    2) = (   0.0833333   0.2886751   0.0000000), wk =   0.2222222
        k(    3) = (   0.0833333   0.4811252   0.0000000), wk =   0.2222222
        k(    4) = (   0.2500000   0.0962250   0.0000000), wk =   0.2222222
        k(    5) = (   0.2500000   0.2886751   0.0000000), wk =   0.2222222
        k(    6) = (   0.2500000   0.4811252   0.0000000), wk =   0.2222222
        k(    7) = (   0.4166667   0.0962250   0.0000000), wk =   0.2222222
        k(    8) = (   0.4166667   0.2886751   0.0000000), wk =   0.2222222
        k(    9) = (   0.4166667   0.4811252   0.0000000), wk =   0.2222222

     Dense  grid:  2850479 G-vectors     FFT dimensions: ( 135, 120, 360)

     Smooth grid:   881145 G-vectors     FFT dimensions: (  90,  80, 243)

     Estimated max dynamical RAM per process >       3.58 GB

     Estimated total dynamical RAM >      42.99 GB

     Initial potential from superposition of free atoms

     starting charge 1582.32788, renormalised to 1584.00000

     negative rho (up, down):  3.841E+00 0.000E+00
     Starting wfcs are 1296 randomized atomic wfcs

     total cpu time spent up to now is       47.0 secs

     Self-consistent Calculation

     iteration #  1     ecut=    40.00 Ry     beta= 0.70
     Davidson diagonalization with overlap
     ethr =  1.00E-02,  avg # of iterations =  2.9

     Threshold (ethr) on eigenvalues was too large:
     Diagonalizing with lowered threshold

     Davidson diagonalization with overlap
     ethr =  3.34E-04,  avg # of iterations =  3.4

     negative rho (up, down):  3.652E+00 0.000E+00

     total cpu time spent up to now is      265.4 secs

     total energy              =  -14692.54182422 Ry
     estimated scf accuracy    <       6.30486345 Ry

     iteration #  2     ecut=    40.00 Ry     beta= 0.70
     Davidson diagonalization with overlap
     ethr =  3.98E-04,  avg # of iterations =  1.1

     negative rho (up, down):  3.857E+00 0.000E+00

     total cpu time spent up to now is      348.8 secs

     total energy              =  -14692.82446559 Ry
     estimated scf accuracy    <       2.81478642 Ry

     iteration #  3     ecut=    40.00 Ry     beta= 0.70
     Davidson diagonalization with overlap
     ethr =  1.78E-04,  avg # of iterations =  3.3

     negative rho (up, down):  4.054E+00 0.000E+00

     total cpu time spent up to now is      448.5 secs

     total energy              =  -14692.80775064 Ry
     estimated scf accuracy    <       1.64701660 Ry

     iteration #  4     ecut=    40.00 Ry     beta= 0.70
     Davidson diagonalization with overlap
     c_bands:  2 eigenvalues not converged
     c_bands:  1 eigenvalues not converged
     ethr =  1.04E-04,  avg # of iterations = 14.1

     negative rho (up, down):  4.049E+00 0.000E+00

     total cpu time spent up to now is      587.9 secs

     total energy              =  -14692.78137970 Ry
     estimated scf accuracy    <       0.80853764 Ry

     iteration #  5     ecut=    40.00 Ry     beta= 0.70
     Davidson diagonalization with overlap
     c_bands:  3 eigenvalues not converged
     ethr =  5.10E-05,  avg # of iterations = 12.1

     negative rho (up, down):  3.952E+00 0.000E+00

     total cpu time spent up to now is      724.6 secs

     total energy              =  -14692.76990719 Ry
     estimated scf accuracy    <       0.49521626 Ry

     iteration #  6     ecut=    40.00 Ry     beta= 0.70
     Davidson diagonalization with overlap
     ethr =  3.13E-05,  avg # of iterations = 11.7

     negative rho (up, down):  3.957E+00 0.000E+00

     total cpu time spent up to now is      857.8 secs

     total energy              =  -14692.75532429 Ry
     estimated scf accuracy    <       0.46948387 Ry

     iteration #  7     ecut=    40.00 Ry     beta= 0.70
     Davidson diagonalization with overlap
     ethr =  2.96E-05,  avg # of iterations =  6.4

     negative rho (up, down):  3.977E+00 0.000E+00

     total cpu time spent up to now is      966.8 secs

     total energy              =  -14692.73668369 Ry
     estimated scf accuracy    <       0.47903695 Ry

     iteration #  8     ecut=    40.00 Ry     beta= 0.70
     Davidson diagonalization with overlap
     ethr =  2.96E-05,  avg # of iterations =  4.1

     negative rho (up, down):  4.040E+00 0.000E+00

     total cpu time spent up to now is     1069.2 secs

     total energy              =  -14692.70867095 Ry
     estimated scf accuracy    <       0.29527812 Ry

     iteration #  9     ecut=    40.00 Ry     beta= 0.70
     Davidson diagonalization with overlap
     ethr =  1.86E-05,  avg # of iterations = 13.4

     negative rho (up, down):  4.018E+00 0.000E+00

     total cpu time spent up to now is     1246.4 secs

     total energy              =  -14692.74212975 Ry
     estimated scf accuracy    <       0.38308919 Ry

     iteration # 10     ecut=    40.00 Ry     beta= 0.70
     Davidson diagonalization with overlap
     ethr =  1.86E-05,  avg # of iterations =  1.0

     negative rho (up, down):  4.081E+00 0.000E+00

     total cpu time spent up to now is     1329.9 secs

     total energy              =  -14692.72437153 Ry
     estimated scf accuracy    <       0.23090851 Ry

     iteration # 11     ecut=    40.00 Ry     beta= 0.70
     Davidson diagonalization with overlap
     ethr =  1.46E-05,  avg # of iterations =  1.7

     negative rho (up, down):  4.088E+00 0.000E+00

     total cpu time spent up to now is     1429.7 secs

     total energy              =  -14692.73671489 Ry
     estimated scf accuracy    <       0.13061998 Ry

     iteration # 12     ecut=    40.00 Ry     beta= 0.70
     Davidson diagonalization with overlap
     ethr =  8.25E-06,  avg # of iterations =  2.9

     negative rho (up, down):  4.143E+00 0.000E+00

     total cpu time spent up to now is     1528.0 secs

     total energy              =  -14692.70650979 Ry
     estimated scf accuracy    <       0.22645592 Ry

     iteration # 13     ecut=    40.00 Ry     beta= 0.70
     Davidson diagonalization with overlap
     ethr =  8.25E-06,  avg # of iterations = 13.3

     negative rho (up, down):  4.052E+00 0.000E+00

     total cpu time spent up to now is     1675.6 secs

     total energy              =  -14692.70922367 Ry
     estimated scf accuracy    <       0.02515701 Ry

     iteration # 14     ecut=    40.00 Ry     beta= 0.70
     Davidson diagonalization with overlap
     ethr =  1.59E-06,  avg # of iterations = 11.6

     negative rho (up, down):  4.019E+00 0.000E+00

     total cpu time spent up to now is     1907.0 secs

     total energy              =  -14692.71595086 Ry
     estimated scf accuracy    <       0.06993648 Ry

     iteration # 15     ecut=    40.00 Ry     beta= 0.70
     Davidson diagonalization with overlap
     ethr =  1.59E-06,  avg # of iterations =  2.1

     negative rho (up, down):  3.975E+00 0.000E+00

     total cpu time spent up to now is     2007.5 secs

     total energy              =  -14692.71061067 Ry
     estimated scf accuracy    <       0.03296013 Ry

     iteration # 16     ecut=    40.00 Ry     beta= 0.70
     Davidson diagonalization with overlap
     c_bands:  1 eigenvalues not converged
     ethr =  1.59E-06,  avg # of iterations = 11.2

     negative rho (up, down):  3.942E+00 0.000E+00

     total cpu time spent up to now is     2162.4 secs

     total energy              =  -14692.71321022 Ry
     estimated scf accuracy    <       0.00106326 Ry

     iteration # 17     ecut=    40.00 Ry     beta= 0.70
     Davidson diagonalization with overlap
     ethr =  6.71E-08,  avg # of iterations = 12.1

     negative rho (up, down):  3.922E+00 0.000E+00

     total cpu time spent up to now is     2326.5 secs

     total energy              =  -14692.71320146 Ry
     estimated scf accuracy    <       0.00033692 Ry

     iteration # 18     ecut=    40.00 Ry     beta= 0.70
     Davidson diagonalization with overlap
     ethr =  2.13E-08,  avg # of iterations = 11.8

     negative rho (up, down):  3.918E+00 0.000E+00

     total cpu time spent up to now is     2467.0 secs

     total energy              =  -14692.71332004 Ry
     estimated scf accuracy    <       0.00005390 Ry

     iteration # 19     ecut=    40.00 Ry     beta= 0.70
     Davidson diagonalization with overlap
     ethr =  3.40E-09,  avg # of iterations =  5.9

     negative rho (up, down):  3.918E+00 0.000E+00

     total cpu time spent up to now is     2596.5 secs

     total energy              =  -14692.71337854 Ry
     estimated scf accuracy    <       0.00000720 Ry

     iteration # 20     ecut=    40.00 Ry     beta= 0.70
     Davidson diagonalization with overlap
     ethr =  4.54E-10,  avg # of iterations =  4.3

     negative rho (up, down):  3.918E+00 0.000E+00

     total cpu time spent up to now is     2709.7 secs

     total energy              =  -14692.71339407 Ry
     estimated scf accuracy    <       0.00000588 Ry

     iteration # 21     ecut=    40.00 Ry     beta= 0.70
     Davidson diagonalization with overlap
     ethr =  3.71E-10,  avg # of iterations =  3.8

     negative rho (up, down):  3.918E+00 0.000E+00

     total cpu time spent up to now is     2815.5 secs

     total energy              =  -14692.71339600 Ry
     estimated scf accuracy    <       0.00000181 Ry

     iteration # 22     ecut=    40.00 Ry     beta= 0.70
     Davidson diagonalization with overlap
     ethr =  1.14E-10,  avg # of iterations =  2.1

     negative rho (up, down):  3.918E+00 0.000E+00

     total cpu time spent up to now is     2912.3 secs

     End of self-consistent calculation

          k = 0.0833 0.0962 0.0000 (110166 PWs)   bands (ev):

    -0.8130  -0.4713   0.0254   0.2537   0.5491   0.5640   0.6015   0.6350
     0.8362   0.9223   0.9650   1.0167   1.1251   1.2159   1.2463   1.3387
     1.3567   1.4434   1.5098   1.5526   1.5573   1.5649   1.5683   1.5732
     1.6035   1.6142   1.6194   1.7228   1.7260   1.7269   1.7934   1.8327
     1.8476   1.8506   1.8521   1.8546   1.8571   1.8641   1.8682   1.8949
     1.9218   1.9649   1.9990   2.0302   2.0336   2.0406   2.0560   2.0883
     2.1220   2.1227   2.1254   2.1516   2.1520   2.1577   2.1636   2.1664
     2.1714   2.1763   2.2257   2.2293   2.2382   2.2441   2.2775   2.2806
     2.3045   2.3086   2.3100   2.3147   2.3180   2.3229   2.3337   2.3404
     2.3495   2.3502   2.3811   2.3825   2.3916   2.4115   2.4118   2.4166
     2.4265   2.4302   2.4407   2.4502   2.4522   2.4685   2.4759   2.4837
     2.4887   2.4953   2.5109   2.5151   2.5245   2.5430   2.5462   2.5556
     2.5579   2.5687   2.5741   2.5801   2.5812   2.5933   2.6022   2.6143
     2.6234   2.6415   2.6541   2.6549   2.6672   2.6688   2.6700   2.6805
     2.6846   2.6980   2.7197   2.7199   2.7237   2.7341   2.7476   2.7590
     2.7689   2.7781   2.7906   2.7938   2.8071   2.8124   2.8125   2.8193
     2.8247   2.8508   2.8554   2.8573   2.8600   2.8986   2.9208   2.9294
     2.9326   2.9403   2.9479   2.9503   2.9612   2.9794   2.9841   2.9975
     3.0086   3.0237   3.0439   3.0562   3.0593   3.0691   3.0694   3.0726
     3.0814   3.0834   3.0933   3.1160   3.1171   3.1200   3.1379   3.1428
     3.1479   3.1674   3.1695   3.1761   3.1909   3.1946   3.2021   3.2088
     3.2139   3.2319   3.2336   3.2372   3.2453   3.2615   3.2817   3.2842
     3.2910   3.2926   3.2934   3.3002   3.3218   3.3245   3.3253   3.3263
     3.3319   3.3334   3.3366   3.3440   3.3506   3.3552   3.3607   3.3695
     3.3758   3.3817   3.4061   3.4067   3.4166   3.4219   3.4277   3.4423
     3.4478   3.4484   3.4495   3.4593   3.4631   3.4634   3.4757   3.4759
     3.4789   3.4825   3.4871   3.4974   3.5022   3.5090   3.5120   3.5267
     3.5334   3.5360   3.5480   3.5629   3.5670   3.5689   3.5801   3.5868
     3.5972   3.6018   3.6019   3.6076   3.6089   3.6211   3.6326   3.6469
     3.6480   3.6482   3.6595   3.6791   3.6847   3.6907   3.7092   3.7116
     3.7320   3.7326   3.7494   3.7504   3.7620   3.7656   3.7732   3.7743
     3.7760   3.7789   3.7863   3.7920   3.7940   3.8014   3.8050   3.8139
     3.8189   3.8281   3.8358   3.8434   3.8525   3.8649   3.8697   3.8698
     3.8735   3.8738   3.8766   3.8935   3.8952   3.9003   3.9021   3.9073
     3.9193   3.9206   3.9260   3.9327   3.9342   3.9346   3.9388   3.9495
     3.9550   3.9553   3.9610   3.9635   3.9647   3.9677   3.9802   3.9835
     3.9865   3.9877   3.9917   3.9941   4.0057   4.0118   4.0217   4.0262
     4.0265   4.0425   4.0521   4.0645   4.0682   4.0731   4.0733   4.0801
     4.0868   4.0953   4.0986   4.0992   4.1049   4.1080   4.1101   4.1141
     4.1178   4.1298   4.1337   4.1399   4.1422   4.1570   4.1587   4.1645
     4.1654   4.1657   4.1664   4.1674   4.1743   4.1754   4.1755   4.1786
     4.1831   4.1889   4.1906   4.1906   4.1941   4.2008   4.2039   4.2058
     4.2067   4.2152   4.2185   4.2272   4.2358   4.2378   4.2442   4.2549
     4.2566   4.2612   4.2654   4.2700   4.2779   4.2941   4.2961   4.3003
     4.3058   4.3146   4.3185   4.3219   4.3224   4.3330   4.3384   4.3481
     4.3567   4.3578   4.3594   4.3673   4.3696   4.3704   4.3790   4.3807
     4.3828   4.3838   4.3928   4.3944   4.3996   4.4014   4.4266   4.4297
     4.4314   4.4335   4.4421   4.4513   4.4514   4.4526   4.4661   4.4687
     4.4916   4.4934   4.5084   4.5098   4.5128   4.5188   4.5197   4.5250
     4.5282   4.5336   4.5363   4.5382   4.5484   4.5688   4.5790   4.5973
     4.6061   4.6219   4.6326   4.6326   4.6362   4.6450   4.6592   4.6632
     4.6874   4.6917   4.6926   4.6975   4.6991   4.7085   4.7183   4.7212
     4.7252   4.7374   4.7467   4.7490   4.7515   4.7607   4.7645   4.7728
     4.8137   4.8255   4.8275   4.8288   4.8404   4.8422   4.8508   4.8720
     4.8787   4.8810   4.8821   4.8919   4.8962   4.8991   4.9029   4.9094
     4.9100   4.9107   4.9275   4.9299   4.9353   4.9413   4.9564   4.9597
     4.9620   4.9724   4.9731   4.9751   4.9810   4.9836   4.9914   4.9989
     4.9990   5.0118   5.0192   5.0294   5.0299   5.0307   5.0353   5.0376
     5.0465   5.0565   5.0606   5.0632   5.0696   5.0822   5.0882   5.1087
     5.1115   5.1243   5.1281   5.1353   5.1384   5.1419   5.1514   5.1519
     5.1540   5.1604   5.1817   5.1907   5.1930   5.2012   5.2013   5.2159
     5.2161   5.2235   5.2245   5.2293   5.2316   5.2316   5.2363   5.2382
     5.2386   5.2496   5.2607   5.2615   5.2622   5.2650   5.2663   5.2689
     5.2703   5.2754   5.2829   5.2855   5.2873   5.2962   5.2994   5.3189
     5.3199   5.3220   5.3270   5.3322   5.3343   5.3403   5.3473   5.3511
     5.3521   5.3538   5.3544   5.3752   5.3790   5.3898   5.4066   5.4066
     5.4141   5.4168   5.4191   5.4199   5.4241   5.4281   5.4316   5.4509
     5.4527   5.4535   5.4608   5.4785   5.4793   5.4888   5.4896   5.4961
     5.5109   5.5163   5.5165   5.5351   5.5400   5.5429   5.5455   5.5473
     5.5511   5.5549   5.5558   5.5726   5.5768   5.5768   5.6004   5.6062
     5.6110   5.6226   5.6275   5.6413   5.6479   5.6572   5.6594   5.6607
     5.6751   5.6763   5.6786   5.6971   5.6972   5.6999   5.6999   5.7093
     5.7107   5.7249   5.7290   5.7303   5.7475   5.7482   5.7567   5.7609
     5.7622   5.7907   5.8051   5.8080   5.8116   5.8215   5.8243   5.8307
     5.8487   5.8548   5.8601   5.8653   5.8654   5.8669   5.8825   5.8891
     5.8930   5.8965   5.8974   5.9060   5.9167   5.9254   5.9398   5.9407
     5.9429   5.9576   5.9593   5.9599   5.9770   5.9780   5.9808   5.9826
     5.9954   5.9956   5.9964   5.9990   6.0112   6.0131   6.0283   6.0517
     6.0530   6.0660   6.0669   6.0706   6.0726   6.0742   6.0859   6.0948
     6.0974   6.0978   6.1010   6.1087   6.1172   6.1181   6.1223   6.1293
     6.1339   6.1427   6.1429   6.1520   6.1547   6.1623   6.1658   6.1677
     6.1699   6.1752   6.1784   6.1795   6.1961   6.1961   6.2014   6.2069
     6.2138   6.2143   6.2199   6.2209   6.2213   6.2315   6.2339   6.2346
     6.2350   6.2390   6.2529   6.2597   6.2598   6.2670   6.2743   6.2767
     6.2828   6.2838   6.2939   6.2945   6.3037   6.3139   6.3192   6.3229
     6.3279   6.3286   6.3361   6.3459   6.3460   6.3460   6.3474   6.3476
     6.3608   6.3716   6.3744   6.3752   6.3762   6.3777   6.3788   6.3797
     6.3880   6.3904   6.3922   6.3925   6.3957   6.3963   6.3980   6.3989
     6.4044   6.4056   6.4092   6.4286   6.4318   6.4324   6.4346   6.4347
     6.4386   6.4516   6.4562   6.4633   6.4651   6.4677   6.4700   6.4865
     6.4868   6.5117   6.5126   6.5195   6.5290   6.5345   6.5460   6.5486
     6.5608   6.5645   6.5714   6.5754   6.5810   6.5847   6.5876   6.5882
     6.5919   6.5939   6.5959   6.5992   6.6011   6.6049   6.6086   6.6334
     6.6383   6.6526   6.6689   6.6705   6.6969   6.6975   6.7171   6.7194
     6.7250   6.7567   6.7607   6.7856   6.7993   6.8275   6.8339   6.8531
     6.8684   6.8764   6.9126   6.9131   6.9558   6.9979   7.0630   7.0798
     7.1345   7.2656   7.3380   7.3797   7.5266   7.6221   7.6698   7.6912
     7.7395   7.7969   7.7988   7.8521   7.8920   8.0375   8.0476   8.0545
     8.0608   8.0795   8.1462   8.2409   8.2770   8.3596   8.4061   8.4153
     8.4534   8.4654   8.5507   8.5855   8.7137   8.7455   8.7753   8.7832
     8.7920   8.9185   8.9272   8.9281   8.9468   8.9508   8.9784   9.0403
     9.0560   9.1042   9.1965   9.2564   9.2727   9.2777   9.2891   9.2968
     9.3531   9.4610   9.5702   9.5885   9.6441   9.6611   9.6860   9.7175
     9.7599   9.8306   9.8605   9.8718   9.8789   9.9042   9.9109   9.9361
     9.9776   9.9943   9.9979  10.0743  10.0901  10.2000  10.2070  10.3143
    10.3642  10.4598  10.5294  10.6511  10.6742  10.7058  10.7284  10.7896
    10.8570  10.8657  10.8917  10.9388  10.9821  10.9854  11.0332  11.0638
    11.0766  11.1309  11.1449  11.2293  11.2359  11.2425  11.2591  11.2644
    11.2823  11.3281  11.3376  11.3824  11.4669  11.5722  11.6063  11.7218
    11.7283  11.7565  11.8213  11.8826  11.8985  11.9043  11.9531  12.0480
    12.0589  12.0968  12.2162  12.2255  12.3381  12.3721  12.3802  12.4489
    12.4558  12.5406  12.5511  12.6019  12.6092  12.6161  12.6199  12.6451
    12.7299  12.7436  12.7914  12.8467  12.8748  12.8884  13.0227  13.0523
    13.0812  13.1580  13.2153  13.2446  13.2843  13.3196  13.3234  13.3388
    13.3836  13.4640  13.4686  13.4686  13.4916  13.5779  13.6762  13.6824
    13.7254  13.8101  13.8226  13.8359  13.8433  13.8831  13.8859  13.8902
    13.9144  13.9526  13.9609  13.9952  13.9975  14.0027  14.0079  14.0905
    14.1449  14.1706  14.1717  14.2789  14.2824  14.3393  14.3724  14.4039
    14.4104  14.4231  14.5059  14.5482  14.5569  14.7410

          k = 0.0833 0.2887 0.0000 (110134 PWs)   bands (ev):

    -0.7121  -0.3721   0.1226   0.1366   0.3332   0.4500   0.6378   0.6973
     0.6987   0.9045   0.9787   1.0131   1.0803   1.2202   1.2410   1.2639
     1.3072   1.3799   1.4288   1.4719   1.5338   1.5449   1.6002   1.6052
     1.6099   1.6497   1.6505   1.6609   1.6965   1.7607   1.7919   1.8465
     1.8612   1.8865   1.8972   1.9034   1.9191   1.9250   1.9443   1.9944
     2.0365   2.0411   2.0573   2.0650   2.0786   2.0842   2.0853   2.0992
     2.1138   2.1520   2.1678   2.1708   2.1737   2.1753   2.1759   2.1996
     2.2057   2.2132   2.2504   2.2536   2.2538   2.2572   2.2715   2.2721
     2.2769   2.2863   2.2876   2.2884   2.2973   2.3060   2.3122   2.3236
     2.3272   2.3384   2.3590   2.3593   2.3611   2.3625   2.3682   2.4027
     2.4144   2.4228   2.4253   2.4335   2.4503   2.4613   2.4685   2.4714
     2.4807   2.4860   2.4946   2.4996   2.4997   2.5020   2.5088   2.5180
     2.5195   2.5439   2.5454   2.5547   2.5682   2.5732   2.5878   2.5948
     2.5973   2.6219   2.6429   2.6489   2.6593   2.6746   2.6771   2.6810
     2.6925   2.6944   2.6953   2.7018   2.7021   2.7049   2.7113   2.7226
     2.7231   2.7432   2.7598   2.7747   2.7761   2.7801   2.7972   2.8035
     2.8073   2.8114   2.8195   2.8325   2.8377   2.8537   2.8595   2.8696
     2.8704   2.8873   2.8925   2.9246   2.9299   2.9322   2.9382   2.9462
     2.9789   2.9961   3.0051   3.0105   3.0142   3.0356   3.0410   3.0691
     3.0795   3.0823   3.0827   3.0843   3.0888   3.1043   3.1257   3.1303
     3.1369   3.1416   3.1603   3.1627   3.1782   3.1825   3.2006   3.2245
     3.2320   3.2376   3.2393   3.2421   3.2487   3.2675   3.2683   3.2740
     3.2741   3.2745   3.2915   3.3072   3.3115   3.3143   3.3282   3.3343
     3.3391   3.3401   3.3499   3.3540   3.3602   3.3673   3.3744   3.3839
     3.3845   3.4096   3.4119   3.4217   3.4237   3.4348   3.4395   3.4519
     3.4607   3.4617   3.4699   3.4764   3.4792   3.4837   3.4959   3.5018
     3.5087   3.5155   3.5242   3.5315   3.5335   3.5473   3.5494   3.5511
     3.5556   3.5560   3.5684   3.5842   3.5877   3.5886   3.6151   3.6159
     3.6199   3.6221   3.6229   3.6272   3.6412   3.6486   3.6611   3.6750
     3.6779   3.6854   3.6858   3.6914   3.6997   3.7020   3.7078   3.7081
     3.7385   3.7496   3.7511   3.7626   3.7649   3.7669   3.7707   3.7707
     3.7794   3.7863   3.7915   3.8157   3.8159   3.8362   3.8387   3.8465
     3.8506   3.8535   3.8623   3.8647   3.8700   3.8763   3.8922   3.8973
     3.9037   3.9095   3.9112   3.9126   3.9149   3.9278   3.9386   3.9442
     3.9443   3.9450   3.9452   3.9480   3.9551   3.9590   3.9654   3.9763
     3.9776   3.9821   3.9937   3.9947   3.9987   4.0006   4.0081   4.0219
     4.0219   4.0247   4.0252   4.0266   4.0547   4.0561   4.0629   4.0670
     4.0722   4.0728   4.0736   4.0745   4.0819   4.0849   4.1083   4.1113
     4.1157   4.1158   4.1222   4.1351   4.1397   4.1401   4.1455   4.1463
     4.1463   4.1478   4.1517   4.1608   4.1688   4.1738   4.1761   4.1779
     4.1812   4.1853   4.1873   4.1914   4.1945   4.1974   4.1981   4.2031
     4.2063   4.2130   4.2165   4.2187   4.2219   4.2228   4.2237   4.2261
     4.2261   4.2289   4.2318   4.2327   4.2457   4.2463   4.2669   4.2687
     4.2716   4.2764   4.2776   4.2826   4.2880   4.2984   4.2986   4.3034
     4.3078   4.3105   4.3178   4.3229   4.3271   4.3304   4.3445   4.3490
     4.3507   4.3604   4.3688   4.3700   4.3783   4.3804   4.3805   4.3887
     4.3986   4.4044   4.4190   4.4232   4.4239   4.4320   4.4332   4.4538
     4.4576   4.4610   4.4624   4.4642   4.4659   4.4719   4.4882   4.4932
     4.4934   4.4946   4.5052   4.5212   4.5234   4.5335   4.5395   4.5488
     4.5569   4.5756   4.5778   4.5802   4.5838   4.5905   4.5985   4.5986
     4.6014   4.6126   4.6136   4.6308   4.6408   4.6535   4.6546   4.6600
     4.6646   4.6705   4.6770   4.6839   4.6893   4.6985   4.7062   4.7063
     4.7097   4.7170   4.7194   4.7418   4.7477   4.7589   4.7698   4.7758
     4.7951   4.8046   4.8209   4.8263   4.8297   4.8332   4.8451   4.8508
     4.8595   4.8597   4.8663   4.8665   4.8749   4.8757   4.8960   4.8994
     4.9086   4.9185   4.9256   4.9265   4.9276   4.9464   4.9468   4.9486
     4.9633   4.9656   4.9663   4.9751   4.9818   4.9849   4.9865   4.9893
     4.9925   4.9993   5.0062   5.0080   5.0121   5.0273   5.0292   5.0354
     5.0419   5.0479   5.0520   5.0659   5.0720   5.0840   5.0935   5.0984
     5.0993   5.1151   5.1158   5.1167   5.1296   5.1303   5.1355   5.1463
     5.1482   5.1489   5.1583   5.1718   5.1826   5.1943   5.1953   5.2017
     5.2024   5.2107   5.2200   5.2237   5.2266   5.2340   5.2385   5.2418
     5.2458   5.2517   5.2524   5.2545   5.2573   5.2610   5.2795   5.2835
     5.2913   5.3125   5.3205   5.3213   5.3244   5.3284   5.3304   5.3401
     5.3460   5.3468   5.3469   5.3554   5.3597   5.3615   5.3710   5.3783
     5.3872   5.3929   5.3969   5.4085   5.4100   5.4124   5.4193   5.4259
     5.4270   5.4288   5.4290   5.4372   5.4376   5.4491   5.4492   5.4541
     5.4707   5.4772   5.4805   5.4823   5.4941   5.4959   5.4978   5.5079
     5.5094   5.5098   5.5211   5.5267   5.5357   5.5379   5.5459   5.5502
     5.5523   5.5536   5.5747   5.5793   5.5815   5.5848   5.5887   5.5930
     5.5984   5.6044   5.6071   5.6083   5.6129   5.6220   5.6320   5.6326
     5.6369   5.6381   5.6433   5.6511   5.6652   5.6677   5.6711   5.6744
     5.6913   5.6939   5.6944   5.7056   5.7143   5.7217   5.7284   5.7294
     5.7357   5.7452   5.7457   5.7675   5.7684   5.7723   5.7738   5.7740
     5.7857   5.7900   5.7915   5.7970   5.7997   5.8193   5.8218   5.8345
     5.8359   5.8588   5.8641   5.8690   5.8719   5.8780   5.8976   5.9035
     5.9071   5.9140   5.9142   5.9257   5.9281   5.9433   5.9438   5.9466
     5.9479   5.9481   5.9558   5.9722   5.9750   5.9824   5.9825   5.9825
     5.9842   6.0105   6.0166   6.0199   6.0236   6.0247   6.0278   6.0298
     6.0328   6.0378   6.0596   6.0715   6.0922   6.1041   6.1084   6.1093
     6.1133   6.1183   6.1241   6.1253   6.1271   6.1348   6.1455   6.1466
     6.1505   6.1564   6.1593   6.1601   6.1624   6.1742   6.1767   6.1903
     6.1937   6.2051   6.2051   6.2052   6.2082   6.2112   6.2146   6.2163
     6.2238   6.2278   6.2345   6.2362   6.2503   6.2539   6.2564   6.2600
     6.2715   6.2750   6.2756   6.2757   6.2817   6.2831   6.2865   6.2938
     6.2970   6.2972   6.3005   6.3010   6.3143   6.3144   6.3195   6.3211
     6.3223   6.3272   6.3342   6.3426   6.3543   6.3572   6.3622   6.3648
     6.3663   6.3761   6.3789   6.3839   6.3891   6.3894   6.3907   6.3930
     6.3947   6.4003   6.4003   6.4265   6.4355   6.4471   6.4493   6.4537
     6.4540   6.4583   6.4601   6.4615   6.4641   6.4654   6.4810   6.4873
     6.4892   6.4933   6.4983   6.5050   6.5169   6.5402   6.5418   6.5432
     6.5433   6.5493   6.5641   6.5646   6.5678   6.5871   6.5887   6.5974
     6.5995   6.5996   6.6024   6.6025   6.6070   6.6192   6.6267   6.6272
     6.6300   6.6426   6.7176   6.7186   6.7255   6.7426   6.7448   6.7964
     6.8302   6.8480   6.8542   6.8748   6.8776   6.9109   6.9110   6.9661
     6.9992   7.0641   7.0847   7.1195   7.1489   7.2420   7.3240   7.3245
     7.3414   7.4302   7.4630   7.4847   7.5135   7.5676   7.5805   7.6162
     7.6594   7.7312   7.7838   7.7876   7.7930   7.8221   7.9866   8.0153
     8.0369   8.0831   8.1141   8.2065   8.2147   8.2357   8.2561   8.2942
     8.2998   8.4393   8.4530   8.4791   8.5082   8.5499   8.6561   8.6805
     8.7582   8.7940   8.7953   8.8002   8.9361   8.9603   9.0338   9.0368
     9.0778   9.0922   9.1197   9.1200   9.1524   9.1736   9.2183   9.2661
     9.2793   9.4278   9.4350   9.4445   9.4481   9.4830   9.6589   9.7075
     9.7081   9.7105   9.7678   9.7773   9.8411   9.9048   9.9556   9.9826
    10.0122  10.0861  10.1378  10.1753  10.2303  10.3585  10.4072  10.4494
    10.4915  10.5418  10.6180  10.6335  10.6516  10.6523  10.6636  10.7169
    10.9127  10.9775  11.0145  11.0274  11.1102  11.1341  11.2091  11.2248
    11.2606  11.3006  11.3089  11.3203  11.3340  11.3796  11.4415  11.4990
    11.5260  11.5990  11.6092  11.6359  11.6929  11.7603  11.7671  11.7724
    11.8430  11.8434  11.8741  12.0151  12.0287  12.0817  12.0885  12.0928
    12.0992  12.1876  12.2303  12.2589  12.2954  12.3867  12.4261  12.4476
    12.4923  12.5343  12.5529  12.5788  12.5810  12.6147  12.6668  12.7281
    12.7651  12.7787  12.8334  12.9114  12.9157  12.9251  12.9506  13.0058
    13.0222  13.1168  13.1307  13.1930  13.2289  13.2743  13.2776  13.3044
    13.3267  13.4002  13.4215  13.4308  13.4392  13.4528  13.5596  13.6148
    13.6183  13.6329  13.6494  13.6769  13.7157  13.7436  13.7516  13.7994
    13.8670  13.8985  14.0079  14.0116  14.0390  14.0518  14.1045  14.1162
    14.1446  14.1907  14.2002  14.2198  14.2505  14.2550  14.3446  14.3937
    14.4565  14.4686  14.5069  14.5084  14.6140  14.6316

          k = 0.0833 0.4811 0.0000 (110137 PWs)   bands (ev):

    -0.5139  -0.2262  -0.1779   0.1020   0.3117   0.4900   0.5802   0.7195
     0.7833   0.8244   0.8821   0.9951   1.0079   1.0909   1.1388   1.2050
     1.2569   1.3853   1.4018   1.4637   1.5057   1.5834   1.5911   1.6432
     1.6938   1.7091   1.7516   1.7547   1.8040   1.8168   1.8291   1.8300
     1.8556   1.8813   1.9102   1.9392   1.9455   1.9476   1.9731   1.9998
     2.0095   2.0104   2.0133   2.0284   2.0427   2.0658   2.0742   2.0845
     2.1272   2.1291   2.1441   2.1466   2.1616   2.1688   2.1962   2.2125
     2.2302   2.2340   2.2342   2.2417   2.2477   2.2734   2.2886   2.2906
     2.3019   2.3027   2.3080   2.3254   2.3294   2.3382   2.3438   2.3449
     2.3580   2.3701   2.3765   2.3807   2.3833   2.3991   2.4063   2.4080
     2.4122   2.4230   2.4263   2.4282   2.4365   2.4396   2.4494   2.4515
     2.4562   2.4603   2.4743   2.4766   2.4838   2.4857   2.5135   2.5358
     2.5376   2.5379   2.5534   2.5647   2.5681   2.5757   2.5801   2.5880
     2.5905   2.5944   2.5982   2.5986   2.5986   2.6140   2.6169   2.6208
     2.6351   2.6591   2.6614   2.6637   2.6731   2.6933   2.6942   2.7013
     2.7149   2.7166   2.7267   2.7430   2.7451   2.7601   2.7718   2.7725
     2.7757   2.7809   2.7855   2.8061   2.8066   2.8068   2.8147   2.8344
     2.8371   2.8490   2.8555   2.8595   2.8609   2.8754   2.8758   2.9117
     2.9196   2.9229   2.9373   2.9565   2.9568   3.0112   3.0220   3.0565
     3.0676   3.0804   3.0827   3.0851   3.1109   3.1221   3.1307   3.1331
     3.1401   3.1430   3.1630   3.1802   3.1811   3.1965   3.1988   3.1993
     3.2089   3.2124   3.2233   3.2249   3.2283   3.2629   3.2674   3.2743
     3.2794   3.3128   3.3166   3.3245   3.3277   3.3292   3.3475   3.3540
     3.3606   3.3732   3.3732   3.3759   3.3779   3.3791   3.4049   3.4096
     3.4138   3.4214   3.4347   3.4388   3.4389   3.4643   3.4732   3.4748
     3.4860   3.4962   3.5063   3.5150   3.5151   3.5186   3.5320   3.5382
     3.5390   3.5437   3.5537   3.5580   3.5709   3.5763   3.5764   3.5856
     3.5908   3.5920   3.5935   3.5983   3.6016   3.6210   3.6244   3.6247
     3.6252   3.6260   3.6263   3.6298   3.6447   3.6620   3.6923   3.6933
     3.6961   3.6978   3.7044   3.7151   3.7190   3.7201   3.7209   3.7304
     3.7344   3.7349   3.7437   3.7459   3.7592   3.7594   3.7714   3.7770
     3.7852   3.7877   3.7904   3.8107   3.8252   3.8266   3.8467   3.8493
     3.8555   3.8557   3.8571   3.8677   3.8682   3.8751   3.9043   3.9165
     3.9196   3.9226   3.9234   3.9245   3.9307   3.9409   3.9487   3.9530
     3.9710   3.9758   3.9784   3.9799   3.9924   4.0057   4.0126   4.0154
     4.0163   4.0193   4.0283   4.0391   4.0392   4.0418   4.0534   4.0579
     4.0685   4.0696   4.0709   4.0764   4.0789   4.0857   4.0913   4.0969
     4.0979   4.1022   4.1097   4.1141   4.1197   4.1203   4.1296   4.1318
     4.1351   4.1394   4.1411   4.1424   4.1499   4.1548   4.1624   4.1625
     4.1639   4.1650   4.1694   4.1711   4.1783   4.1812   4.1832   4.1870
     4.1935   4.1971   4.1988   4.1995   4.1998   4.2003   4.2021   4.2051
     4.2101   4.2141   4.2182   4.2187   4.2308   4.2317   4.2319   4.2368
     4.2373   4.2388   4.2502   4.2543   4.2559   4.2579   4.2678   4.2739
     4.2745   4.2784   4.2826   4.2886   4.2967   4.3005   4.3061   4.3147
     4.3153   4.3224   4.3280   4.3394   4.3446   4.3505   4.3537   4.3560
     4.3626   4.3688   4.3691   4.3709   4.3719   4.3816   4.3894   4.3938
     4.3996   4.4066   4.4255   4.4266   4.4295   4.4344   4.4625   4.4630
     4.4667   4.4712   4.4781   4.4842   4.4854   4.4906   4.4911   4.4956
     4.4992   4.5050   4.5224   4.5343   4.5355   4.5361   4.5407   4.5500
     4.5560   4.5661   4.5744   4.5770   4.5787   4.5864   4.5909   4.6079
     4.6397   4.6475   4.6522   4.6621   4.6668   4.6804   4.6844   4.6859
     4.6918   4.6991   4.7037   4.7145   4.7189   4.7256   4.7307   4.7446
     4.7456   4.7650   4.7789   4.7853   4.7974   4.8014   4.8059   4.8103
     4.8113   4.8150   4.8177   4.8235   4.8241   4.8261   4.8281   4.8301
     4.8496   4.8586   4.8595   4.8718   4.8722   4.8738   4.8799   4.8859
     4.8883   4.8946   4.9011   4.9066   4.9185   4.9252   4.9463   4.9534
     4.9585   4.9647   4.9712   4.9812   4.9819   4.9913   4.9931   5.0022
     5.0065   5.0147   5.0166   5.0228   5.0248   5.0341   5.0342   5.0373
     5.0424   5.0587   5.0607   5.0733   5.0783   5.0845   5.0865   5.0948
     5.1095   5.1212   5.1224   5.1293   5.1336   5.1352   5.1487   5.1513
     5.1553   5.1611   5.1618   5.1733   5.1803   5.1854   5.1902   5.1909
     5.1999   5.2044   5.2071   5.2221   5.2250   5.2285   5.2311   5.2321
     5.2390   5.2392   5.2410   5.2425   5.2462   5.2504   5.2585   5.2591
     5.2645   5.2741   5.2769   5.2834   5.2859   5.2887   5.2972   5.3121
     5.3163   5.3266   5.3273   5.3312   5.3372   5.3444   5.3446   5.3557
     5.3643   5.3672   5.3731   5.3761   5.3762   5.3767   5.3812   5.3877
     5.3951   5.3952   5.3989   5.4029   5.4035   5.4092   5.4131   5.4318
     5.4342   5.4461   5.4563   5.4578   5.4593   5.4729   5.4743   5.4746
     5.4869   5.4950   5.5089   5.5185   5.5323   5.5334   5.5360   5.5372
     5.5425   5.5470   5.5555   5.5643   5.5680   5.5772   5.5778   5.5822
     5.5939   5.5991   5.6046   5.6076   5.6202   5.6219   5.6321   5.6406
     5.6454   5.6454   5.6472   5.6584   5.6680   5.6747   5.6788   5.6858
     5.6967   5.7079   5.7124   5.7299   5.7308   5.7312   5.7334   5.7430
     5.7484   5.7495   5.7628   5.7668   5.7693   5.7698   5.7724   5.7766
     5.7779   5.7981   5.8002   5.8072   5.8106   5.8288   5.8329   5.8341
     5.8374   5.8439   5.8538   5.8542   5.8570   5.8574   5.8583   5.8600
     5.8765   5.9006   5.9022   5.9034   5.9107   5.9108   5.9466   5.9471
     5.9490   5.9495   5.9581   5.9588   5.9634   5.9687   5.9688   5.9775
     5.9909   6.0095   6.0131   6.0141   6.0278   6.0361   6.0441   6.0478
     6.0530   6.0537   6.0565   6.0573   6.0719   6.0731   6.0735   6.0736
     6.0766   6.0774   6.0891   6.0907   6.0911   6.1010   6.1074   6.1078
     6.1085   6.1232   6.1245   6.1302   6.1395   6.1404   6.1451   6.1505
     6.1530   6.1577   6.1654   6.1686   6.1763   6.1820   6.1842   6.1860
     6.1929   6.1997   6.2057   6.2094   6.2138   6.2189   6.2259   6.2260
     6.2334   6.2355   6.2468   6.2485   6.2579   6.2636   6.2648   6.2657
     6.2673   6.2730   6.2791   6.2827   6.2913   6.2932   6.2976   6.3072
     6.3172   6.3309   6.3339   6.3363   6.3374   6.3453   6.3497   6.3589
     6.3622   6.3648   6.3650   6.3701   6.3763   6.3773   6.3778   6.3833
     6.3850   6.3865   6.3942   6.4091   6.4164   6.4186   6.4243   6.4252
     6.4425   6.4454   6.4485   6.4497   6.4527   6.4742   6.4780   6.4781
     6.4784   6.5016   6.5161   6.5174   6.5364   6.5466   6.5467   6.5473
     6.5481   6.5484   6.5508   6.5652   6.5851   6.5858   6.5899   6.5924
     6.5992   6.5997   6.6021   6.6043   6.6059   6.6347   6.6371   6.6373
     6.6627   6.6818   6.6917   6.6971   6.7171   6.7250   6.7286   6.7398
     6.7464   6.8159   6.8259   6.8954   6.8965   6.8974   6.9057   6.9064
     6.9117   6.9341   7.0626   7.0667   7.1469   7.2576   7.4071   7.4968
     7.5254   7.5292   7.5832   7.6142   7.6392   7.6861   7.7173   7.8002
     7.8061   7.8154   7.8494   7.8509   7.8662   7.8703   8.0011   8.0289
     8.0663   8.1132   8.1925   8.1973   8.2136   8.2648   8.2980   8.3293
     8.3495   8.3614   8.4064   8.4200   8.4214   8.4239   8.5150   8.5163
     8.5960   8.6486   8.6487   8.6701   8.6836   8.7882   8.8061   8.8539
     8.9665   9.0091   9.0220   9.0637   9.1285   9.1464   9.2262   9.2312
     9.2505   9.2985   9.3120   9.3146   9.3897   9.4963   9.5762   9.6973
     9.7013   9.7303   9.7558   9.7804   9.7877   9.8241   9.8688  10.0040
    10.0745  10.2244  10.2500  10.2529  10.2644  10.2982  10.3937  10.4661
    10.5446  10.5521  10.5645  10.5919  10.6435  10.6809  10.7564  10.7872
    10.9349  11.0498  11.0861  11.1349  11.1945  11.2182  11.2268  11.2742
    11.2965  11.3419  11.3897  11.4437  11.4510  11.4824  11.5487  11.6597
    11.6621  11.6655  11.7792  11.8062  11.8309  11.8565  11.9313  11.9858
    12.0008  12.0116  12.0633  12.1034  12.1128  12.1262  12.2557  12.2787
    12.3036  12.3151  12.3200  12.3471  12.3561  12.4096  12.5246  12.5924
    12.6221  12.6534  12.7047  12.7414  12.7651  12.7790  12.8220  12.8497
    12.8734  12.8936  12.9050  12.9365  13.0226  13.0729  13.0937  13.0962
    13.1006  13.1679  13.1797  13.2054  13.2280  13.2495  13.2600  13.2840
    13.2954  13.3791  13.4406  13.4464  13.4626  13.4632  13.4719  13.5043
    13.5235  13.5276  13.6556  13.6623  13.6884  13.7602  13.7660  13.8192
    13.8265  13.8961  13.9334  13.9337  13.9393  13.9580  14.0289  14.0494
    14.0699  14.1013  14.1118  14.1284  14.1642  14.2009  14.2044  14.2312
    14.2435  14.2717  14.3243  14.3740  14.4022  14.4285

          k = 0.2500 0.0962 0.0000 (110146 PWs)   bands (ev):

    -0.7372  -0.3967  -0.0847   0.0988   0.2399   0.6178   0.6743   0.7139
     0.9016   1.0348   1.0430   1.1485   1.1978   1.2720   1.2809   1.2943
     1.3081   1.3872   1.5128   1.5596   1.5861   1.6012   1.6171   1.6296
     1.6347   1.6503   1.6524   1.6767   1.7200   1.7420   1.7828   1.7841
     1.7874   1.8188   1.8489   1.8749   1.8936   1.8996   1.9017   1.9258
     1.9816   1.9843   2.0165   2.0456   2.0479   2.0639   2.0744   2.0792
     2.0924   2.1064   2.1175   2.1250   2.1390   2.1539   2.1584   2.1597
     2.1605   2.1633   2.1651   2.1812   2.2023   2.2209   2.2211   2.2301
     2.2415   2.2444   2.2484   2.2684   2.2786   2.2810   2.2835   2.2968
     2.3110   2.3423   2.3425   2.3516   2.3562   2.3864   2.4043   2.4081
     2.4141   2.4362   2.4403   2.4492   2.4520   2.4581   2.4700   2.4724
     2.4802   2.4967   2.5077   2.5225   2.5233   2.5388   2.5418   2.5508
     2.5816   2.5873   2.5907   2.5948   2.5970   2.5987   2.6202   2.6332
     2.6393   2.6409   2.6631   2.6679   2.6764   2.6786   2.6937   2.6955
     2.7210   2.7223   2.7238   2.7239   2.7323   2.7396   2.7516   2.7626
     2.7859   2.7889   2.7896   2.7937   2.8031   2.8260   2.8323   2.8637
     2.8651   2.8652   2.8673   2.8857   2.8997   2.9061   2.9154   2.9229
     2.9236   2.9330   2.9372   2.9482   2.9515   2.9523   2.9913   2.9916
     2.9946   3.0087   3.0233   3.0251   3.0343   3.0441   3.0606   3.0732
     3.0745   3.0848   3.1098   3.1113   3.1140   3.1269   3.1436   3.1539
     3.1627   3.1680   3.1691   3.1772   3.1786   3.1791   3.1888   3.1941
     3.1959   3.2221   3.2294   3.2307   3.2327   3.2436   3.2544   3.2577
     3.2595   3.2837   3.2872   3.2958   3.2960   3.2990   3.2994   3.3045
     3.3239   3.3244   3.3289   3.3291   3.3324   3.3382   3.3481   3.3597
     3.3629   3.3721   3.3795   3.3833   3.3885   3.3901   3.3983   3.4113
     3.4133   3.4145   3.4376   3.4377   3.4516   3.4520   3.4592   3.4694
     3.4703   3.4711   3.4805   3.4855   3.4892   3.5049   3.5223   3.5313
     3.5334   3.5487   3.5526   3.5592   3.5648   3.5679   3.5776   3.5963
     3.5998   3.6022   3.6090   3.6110   3.6244   3.6291   3.6442   3.6513
     3.6613   3.6688   3.6738   3.6839   3.6932   3.6970   3.7051   3.7102
     3.7161   3.7176   3.7215   3.7228   3.7228   3.7296   3.7350   3.7744
     3.7751   3.7777   3.8086   3.8099   3.8156   3.8178   3.8314   3.8375
     3.8414   3.8416   3.8470   3.8589   3.8599   3.8618   3.8621   3.8636
     3.8754   3.8801   3.8812   3.8836   3.8854   3.8954   3.8983   3.9088
     3.9143   3.9332   3.9339   3.9345   3.9347   3.9350   3.9532   3.9544
     3.9557   3.9575   3.9581   3.9662   3.9724   3.9742   3.9758   3.9765
     3.9818   3.9838   3.9897   3.9929   4.0021   4.0116   4.0187   4.0325
     4.0333   4.0339   4.0458   4.0521   4.0543   4.0562   4.0582   4.0634
     4.0728   4.0746   4.0807   4.0814   4.0827   4.0921   4.0961   4.0972
     4.0989   4.1017   4.1063   4.1097   4.1105   4.1139   4.1258   4.1322
     4.1379   4.1486   4.1557   4.1646   4.1683   4.1752   4.1781   4.1814
     4.1845   4.1860   4.1891   4.1915   4.1937   4.1977   4.2004   4.2021
     4.2038   4.2078   4.2121   4.2202   4.2222   4.2288   4.2367   4.2462
     4.2519   4.2585   4.2721   4.2908   4.2926   4.2963   4.2966   4.2983
     4.3041   4.3122   4.3212   4.3305   4.3329   4.3409   4.3421   4.3455
     4.3578   4.3596   4.3652   4.3674   4.3687   4.3787   4.3838   4.3870
     4.3941   4.4063   4.4071   4.4134   4.4216   4.4266   4.4274   4.4377
     4.4399   4.4439   4.4497   4.4510   4.4528   4.4619   4.4826   4.4900
     4.4979   4.4993   4.5011   4.5131   4.5179   4.5230   4.5340   4.5426
     4.5430   4.5524   4.5553   4.5609   4.5696   4.5976   4.6016   4.6044
     4.6208   4.6296   4.6363   4.6468   4.6477   4.6508   4.6524   4.6567
     4.6739   4.6754   4.6794   4.6796   4.6877   4.7123   4.7161   4.7168
     4.7304   4.7463   4.7569   4.7613   4.7707   4.7718   4.7935   4.7960
     4.8001   4.8045   4.8269   4.8322   4.8437   4.8545   4.8684   4.8742
     4.8807   4.8937   4.8999   4.9180   4.9190   4.9237   4.9255   4.9329
     4.9342   4.9365   4.9394   4.9400   4.9459   4.9472   4.9516   4.9535
     4.9557   4.9594   4.9631   4.9784   4.9817   5.0019   5.0068   5.0068
     5.0097   5.0114   5.0164   5.0269   5.0296   5.0433   5.0610   5.0615
     5.0624   5.0630   5.0668   5.0759   5.0780   5.0929   5.1001   5.1054
     5.1085   5.1215   5.1345   5.1361   5.1392   5.1395   5.1515   5.1547
     5.1587   5.1608   5.1699   5.1785   5.1929   5.1986   5.2097   5.2108
     5.2167   5.2258   5.2259   5.2272   5.2319   5.2331   5.2498   5.2499
     5.2579   5.2588   5.2593   5.2603   5.2646   5.2669   5.2733   5.2864
     5.2992   5.3120   5.3122   5.3245   5.3273   5.3292   5.3344   5.3357
     5.3386   5.3414   5.3529   5.3537   5.3620   5.3642   5.3692   5.3734
     5.3776   5.3969   5.4011   5.4062   5.4211   5.4284   5.4285   5.4322
     5.4432   5.4526   5.4707   5.4741   5.4780   5.5009   5.5021   5.5062
     5.5062   5.5086   5.5148   5.5255   5.5325   5.5438   5.5507   5.5579
     5.5666   5.5692   5.5725   5.5734   5.5810   5.5817   5.5877   5.5883
     5.5884   5.5984   5.5986   5.6050   5.6052   5.6383   5.6418   5.6465
     5.6503   5.6581   5.6594   5.6608   5.6681   5.6832   5.6851   5.6916
     5.7009   5.7035   5.7052   5.7091   5.7092   5.7297   5.7299   5.7328
     5.7333   5.7563   5.7565   5.7598   5.7640   5.7780   5.7906   5.7913
     5.7991   5.8007   5.8047   5.8068   5.8365   5.8397   5.8472   5.8485
     5.8644   5.8696   5.8738   5.8804   5.8937   5.8945   5.9056   5.9093
     5.9235   5.9236   5.9292   5.9371   5.9372   5.9463   5.9531   5.9534
     5.9659   5.9699   5.9713   5.9812   5.9936   5.9955   5.9984   6.0276
     6.0303   6.0321   6.0447   6.0449   6.0455   6.0553   6.0555   6.0591
     6.0651   6.0672   6.0760   6.0792   6.0853   6.0890   6.0912   6.0963
     6.0986   6.1019   6.1024   6.1101   6.1132   6.1189   6.1212   6.1314
     6.1338   6.1404   6.1455   6.1467   6.1497   6.1565   6.1587   6.1653
     6.1736   6.1742   6.1831   6.1833   6.1877   6.1893   6.1929   6.1987
     6.2010   6.2044   6.2061   6.2068   6.2157   6.2207   6.2229   6.2245
     6.2271   6.2301   6.2348   6.2378   6.2436   6.2472   6.2488   6.2515
     6.2581   6.2690   6.2742   6.2774   6.2819   6.2825   6.2867   6.2920
     6.2955   6.2969   6.3020   6.3087   6.3121   6.3148   6.3196   6.3199
     6.3243   6.3268   6.3366   6.3369   6.3378   6.3414   6.3452   6.3465
     6.3500   6.3525   6.3561   6.3641   6.3676   6.3733   6.3754   6.3820
     6.3833   6.3937   6.3951   6.3984   6.4012   6.4101   6.4198   6.4280
     6.4374   6.4443   6.4445   6.4471   6.4471   6.4675   6.4763   6.4795
     6.4812   6.4814   6.4823   6.4835   6.4967   6.5002   6.5083   6.5085
     6.5286   6.5350   6.5379   6.5397   6.5421   6.5453   6.5463   6.5509
     6.5519   6.5625   6.5769   6.5944   6.5974   6.6054   6.6063   6.6178
     6.6197   6.6249   6.6487   6.6539   6.6561   6.6613   6.6687   6.6792
     6.7015   6.7403   6.7485   6.7661   6.7858   6.7884   6.8423   6.8440
     6.9105   6.9538   7.0282   7.0355   7.0460   7.0980   7.1077   7.1109
     7.1244   7.1993   7.2038   7.2480   7.3598   7.3953   7.3983   7.4693
     7.5527   7.6292   7.7219   7.7231   7.7555   7.7926   7.7938   7.8826
     7.9082   7.9448   8.0550   8.1020   8.1389   8.1863   8.1909   8.2658
     8.2670   8.4424   8.5427   8.5445   8.5574   8.5654   8.6216   8.7580
     8.7745   8.8097   8.8448   8.8611   8.9423   8.9856   9.0161   9.0976
     9.1029   9.1662   9.1957   9.2502   9.2766   9.3704   9.4289   9.4417
     9.4738   9.5097   9.5954   9.5982   9.6425   9.6724   9.7590   9.8009
     9.8114   9.8566   9.9074   9.9117  10.0290  10.0777  10.1009  10.1406
    10.1418  10.1948  10.2083  10.3044  10.3274  10.3817  10.4573  10.5029
    10.5045  10.5648  10.5682  10.5811  10.6072  10.6579  10.6672  10.7768
    10.7969  10.9100  10.9418  10.9661  11.0387  11.0596  11.0895  11.1383
    11.1635  11.2196  11.2337  11.2416  11.2812  11.3055  11.3478  11.3506
    11.3927  11.4102  11.4244  11.4692  11.5351  11.5623  11.5724  11.5749
    11.5769  11.7031  11.8827  11.9239  11.9536  11.9608  12.0166  12.0317
    12.0718  12.0840  12.1052  12.1418  12.1802  12.1814  12.2921  12.3729
    12.4428  12.4712  12.4882  12.5364  12.5527  12.6182  12.6540  12.7006
    12.7425  12.7613  12.7972  12.8207  12.8474  12.9504  12.9774  13.0298
    13.0319  13.0916  13.1358  13.1713  13.1777  13.2617  13.2720  13.3356
    13.4024  13.4151  13.4286  13.5099  13.5815  13.5855  13.5984  13.5985
    13.6311  13.7221  13.7318  13.7983  13.8116  13.8513  13.8722  13.8971
    13.9578  13.9956  14.0060  14.0513  14.0614  14.0628  14.0629  14.1356
    14.1419  14.1657  14.1719  14.2963  14.2971  14.3063  14.3415  14.3884
    14.4005  14.4040  14.4271  14.4322  14.5314  14.6114

          k = 0.2500 0.2887 0.0000 (110158 PWs)   bands (ev):

    -0.6372  -0.2985   0.0043   0.1948   0.2062   0.3249   0.5170   0.7648
     0.7686   0.7924   0.9683   1.0400   1.0801   1.2912   1.3256   1.3420
     1.3786   1.4109   1.4342   1.4916   1.6013   1.6106   1.6116   1.6407
     1.6657   1.6683   1.7139   1.7256   1.7566   1.8475   1.8527   1.8593
     1.8861   1.8929   1.9155   1.9238   1.9331   1.9384   1.9571   1.9643
     1.9896   1.9966   2.0034   2.0399   2.0444   2.0489   2.0801   2.0953
     2.1097   2.1161   2.1472   2.1635   2.1646   2.1685   2.1799   2.1980
     2.1981   2.2065   2.2131   2.2215   2.2217   2.2221   2.2321   2.2387
     2.2393   2.2535   2.2608   2.2716   2.2761   2.3135   2.3212   2.3214
     2.3217   2.3234   2.3504   2.3722   2.3756   2.3770   2.3833   2.3858
     2.3882   2.3929   2.3941   2.3945   2.3983   2.4170   2.4659   2.4677
     2.4786   2.4793   2.4842   2.4959   2.5096   2.5111   2.5288   2.5328
     2.5414   2.5441   2.5526   2.5599   2.5644   2.5708   2.5866   2.5931
     2.6065   2.6086   2.6155   2.6238   2.6276   2.6332   2.6570   2.6828
     2.6864   2.6872   2.6937   2.6984   2.7089   2.7137   2.7139   2.7269
     2.7330   2.7373   2.7413   2.7475   2.7617   2.7635   2.7671   2.7712
     2.7844   2.8054   2.8087   2.8103   2.8146   2.8461   2.8545   2.8642
     2.8739   2.8813   2.9025   2.9240   2.9283   2.9332   2.9394   2.9423
     2.9485   2.9533   2.9570   2.9685   2.9806   3.0243   3.0289   3.0350
     3.0613   3.0714   3.0909   3.0985   3.1023   3.1120   3.1219   3.1242
     3.1265   3.1366   3.1503   3.1645   3.1753   3.1932   3.1934   3.2016
     3.2080   3.2242   3.2348   3.2459   3.2607   3.2638   3.2699   3.2742
     3.2753   3.2779   3.2908   3.2915   3.2986   3.2994   3.3120   3.3142
     3.3200   3.3232   3.3268   3.3420   3.3489   3.3509   3.3759   3.3814
     3.3938   3.3960   3.4094   3.4148   3.4221   3.4241   3.4548   3.4606
     3.4607   3.4609   3.4656   3.4688   3.4799   3.4952   3.4969   3.5009
     3.5142   3.5232   3.5254   3.5330   3.5368   3.5376   3.5479   3.5492
     3.5527   3.5582   3.5744   3.5791   3.5876   3.5905   3.5924   3.5949
     3.6156   3.6267   3.6269   3.6322   3.6389   3.6424   3.6455   3.6478
     3.6633   3.6771   3.6909   3.7011   3.7018   3.7045   3.7156   3.7235
     3.7345   3.7373   3.7410   3.7502   3.7508   3.7745   3.7993   3.8004
     3.8051   3.8070   3.8126   3.8245   3.8342   3.8367   3.8459   3.8486
     3.8546   3.8727   3.8776   3.8780   3.8915   3.8966   3.8986   3.8989
     3.9004   3.9095   3.9142   3.9144   3.9164   3.9179   3.9196   3.9223
     3.9322   3.9454   3.9485   3.9648   3.9662   3.9696   3.9812   3.9865
     3.9919   3.9930   3.9930   3.9946   4.0005   4.0118   4.0212   4.0255
     4.0284   4.0293   4.0407   4.0426   4.0446   4.0456   4.0471   4.0534
     4.0592   4.0611   4.0653   4.0695   4.0713   4.0746   4.0816   4.1073
     4.1098   4.1133   4.1215   4.1222   4.1228   4.1280   4.1352   4.1463
     4.1503   4.1511   4.1533   4.1611   4.1660   4.1691   4.1732   4.1817
     4.1912   4.1914   4.1934   4.1946   4.2020   4.2028   4.2058   4.2083
     4.2119   4.2130   4.2135   4.2241   4.2246   4.2248   4.2284   4.2431
     4.2443   4.2449   4.2475   4.2484   4.2541   4.2784   4.2794   4.2838
     4.2883   4.2912   4.2950   4.2976   4.2995   4.3004   4.3042   4.3100
     4.3123   4.3218   4.3280   4.3353   4.3358   4.3429   4.3456   4.3468
     4.3703   4.3763   4.3764   4.3768   4.3799   4.3830   4.3853   4.4077
     4.4101   4.4198   4.4246   4.4286   4.4318   4.4333   4.4415   4.4465
     4.4613   4.4656   4.4695   4.4722   4.4944   4.4978   4.5056   4.5159
     4.5160   4.5309   4.5326   4.5332   4.5452   4.5524   4.5549   4.5556
     4.5565   4.5601   4.5661   4.5810   4.5823   4.5834   4.5961   4.5967
     4.5975   4.6097   4.6105   4.6195   4.6251   4.6345   4.6373   4.6418
     4.6447   4.6533   4.6591   4.6707   4.6948   4.6964   4.7051   4.7122
     4.7130   4.7490   4.7680   4.7698   4.7727   4.7767   4.7798   4.7823
     4.7966   4.7990   4.8031   4.8172   4.8192   4.8316   4.8441   4.8508
     4.8545   4.8565   4.8764   4.8772   4.8797   4.8853   4.8856   4.8860
     4.9006   4.9023   4.9027   4.9074   4.9075   4.9118   4.9255   4.9410
     4.9442   4.9483   4.9551   4.9621   4.9691   4.9698   4.9713   4.9715
     4.9754   4.9784   5.0127   5.0144   5.0194   5.0298   5.0302   5.0315
     5.0406   5.0440   5.0569   5.0634   5.0698   5.0732   5.0749   5.0770
     5.0771   5.0933   5.1009   5.1107   5.1148   5.1180   5.1464   5.1603
     5.1610   5.1707   5.1715   5.1734   5.1886   5.1930   5.1948   5.2103
     5.2149   5.2149   5.2239   5.2254   5.2368   5.2441   5.2450   5.2518
     5.2568   5.2586   5.2709   5.2729   5.2812   5.2814   5.2904   5.2918
     5.2969   5.3067   5.3094   5.3200   5.3286   5.3343   5.3454   5.3456
     5.3613   5.3644   5.3670   5.3699   5.3727   5.3754   5.3878   5.3882
     5.3929   5.3931   5.3977   5.4065   5.4296   5.4387   5.4447   5.4458
     5.4518   5.4532   5.4620   5.4628   5.4636   5.4689   5.4707   5.4855
     5.4914   5.4945   5.4974   5.4998   5.5042   5.5237   5.5263   5.5265
     5.5317   5.5364   5.5372   5.5373   5.5491   5.5528   5.5733   5.5739
     5.5755   5.5879   5.5890   5.5951   5.5972   5.6052   5.6160   5.6410
     5.6420   5.6433   5.6439   5.6470   5.6489   5.6508   5.6509   5.6762
     5.6787   5.6862   5.6932   5.7087   5.7091   5.7117   5.7179   5.7226
     5.7234   5.7269   5.7279   5.7303   5.7373   5.7420   5.7493   5.7512
     5.7621   5.7689   5.7743   5.7808   5.7918   5.8010   5.8194   5.8263
     5.8268   5.8274   5.8406   5.8447   5.8459   5.8545   5.8626   5.8818
     5.8846   5.8959   5.9022   5.9137   5.9147   5.9222   5.9233   5.9277
     5.9371   5.9401   5.9418   5.9580   5.9633   5.9670   5.9705   5.9796
     6.0019   6.0110   6.0126   6.0272   6.0285   6.0296   6.0353   6.0390
     6.0482   6.0559   6.0636   6.0662   6.0720   6.0800   6.0871   6.0908
     6.0919   6.0931   6.0941   6.0948   6.1051   6.1082   6.1143   6.1155
     6.1197   6.1297   6.1340   6.1343   6.1418   6.1493   6.1496   6.1521
     6.1550   6.1553   6.1609   6.1709   6.1740   6.1743   6.1749   6.1892
     6.1920   6.1950   6.1992   6.2015   6.2025   6.2041   6.2082   6.2133
     6.2180   6.2201   6.2271   6.2287   6.2293   6.2345   6.2417   6.2426
     6.2475   6.2498   6.2524   6.2573   6.2576   6.2587   6.2647   6.2651
     6.2685   6.2732   6.2740   6.2766   6.2855   6.2856   6.2879   6.2885
     6.2959   6.2967   6.3004   6.3145   6.3148   6.3294   6.3390   6.3391
     6.3471   6.3474   6.3549   6.3588   6.3689   6.3710   6.3753   6.3772
     6.3802   6.3806   6.3881   6.3900   6.3968   6.3990   6.4012   6.4073
     6.4225   6.4316   6.4334   6.4443   6.4548   6.4668   6.4670   6.4734
     6.4739   6.4739   6.4778   6.4820   6.4933   6.5068   6.5269   6.5274
     6.5314   6.5371   6.5384   6.5407   6.5450   6.5463   6.5511   6.5596
     6.5728   6.5800   6.5803   6.5878   6.5899   6.6005   6.6145   6.6360
     6.6486   6.6533   6.6572   6.6678   6.6836   6.7044   6.7148   6.7421
     6.7574   6.7912   6.7986   6.8186   6.8404   6.8411   6.9054   6.9104
     6.9558   6.9641   6.9979   7.0723   7.0947   7.1288   7.1619   7.1914
     7.2304   7.2982   7.3758   7.3782   7.4281   7.4843   7.4997   7.5299
     7.5939   7.6274   7.6599   7.7034   7.7551   7.7589   7.7974   7.7976
     7.8869   7.8872   7.9256   7.9648   8.0865   8.1615   8.2565   8.2718
     8.3176   8.3490   8.4806   8.5146   8.5345   8.5433   8.6021   8.7207
     8.7452   8.8106   8.8315   8.8354   8.9239   8.9663   8.9804   9.0036
     9.0296   9.0600   9.1493   9.2328   9.2551   9.2603   9.3437   9.3715
     9.4157   9.4786   9.5628   9.5722   9.6171   9.6502   9.6509   9.7778
     9.7894   9.8020   9.8209   9.8360   9.8734   9.8841   9.8867   9.9662
    10.1476  10.2436  10.2578  10.2718  10.3086  10.3247  10.3431  10.3602
    10.5116  10.6973  10.7011  10.7339  10.7665  10.7994  10.8091  10.8353
    10.8767  11.0015  11.0041  11.0535  11.0595  11.1195  11.2010  11.2480
    11.2496  11.2711  11.2893  11.3367  11.3811  11.4398  11.4514  11.5397
    11.5533  11.5710  11.6098  11.6595  11.6653  11.6697  11.6727  11.7684
    11.8384  11.8471  11.8488  11.9437  11.9852  11.9862  12.0658  12.1168
    12.1274  12.1286  12.1631  12.2641  12.2721  12.2966  12.3098  12.4328
    12.4713  12.4791  12.4879  12.5139  12.5552  12.6279  12.6389  12.7129
    12.7262  12.7430  12.7827  12.8817  12.8918  12.9148  12.9857  12.9889
    13.0021  13.0879  13.0895  13.1107  13.1427  13.2745  13.2908  13.4134
    13.4544  13.4960  13.4976  13.5277  13.5660  13.5729  13.5797  13.6138
    13.6157  13.6343  13.6822  13.7385  13.7531  13.7953  13.8496  13.8778
    13.9057  13.9627  14.0027  14.0173  14.0575  14.1047  14.1443  14.1658
    14.1883  14.2007  14.2167  14.2194  14.2348  14.2536  14.2646  14.3138
    14.4200  14.4376  14.5468  14.5658  14.6141  14.6773

          k = 0.2500 0.4811 0.0000 (110079 PWs)   bands (ev):

    -0.4406  -0.1549  -0.1061   0.1714   0.1798   0.3815   0.4365   0.4920
     0.6469   0.7344   0.9457   0.9506   1.1544   1.1652   1.2038   1.2655
     1.3916   1.4700   1.4778   1.4964   1.5749   1.6490   1.6688   1.6800
     1.7011   1.7087   1.7712   1.7732   1.7997   1.8191   1.8669   1.8782
     1.9138   1.9188   1.9254   1.9641   2.0013   2.0015   2.0122   2.0129
     2.0199   2.0350   2.0357   2.0689   2.0731   2.1039   2.1074   2.1109
     2.1238   2.1308   2.1459   2.1481   2.1538   2.1546   2.1707   2.1913
     2.1930   2.2042   2.2085   2.2132   2.2156   2.2288   2.2801   2.2804
     2.2860   2.2883   2.2890   2.2920   2.2943   2.3010   2.3047   2.3163
     2.3278   2.3413   2.3456   2.3517   2.3624   2.3667   2.3730   2.3735
     2.3875   2.3885   2.3889   2.4083   2.4122   2.4178   2.4278   2.4322
     2.4338   2.4554   2.4591   2.4734   2.4815   2.4923   2.4929   2.5015
     2.5061   2.5109   2.5340   2.5377   2.5466   2.5472   2.5719   2.5780
     2.5896   2.5897   2.5900   2.5972   2.6015   2.6242   2.6296   2.6379
     2.6479   2.6485   2.6627   2.6632   2.6756   2.6849   2.6855   2.7062
     2.7098   2.7122   2.7157   2.7200   2.7329   2.7333   2.7506   2.7524
     2.7532   2.7623   2.7773   2.7928   2.7935   2.8040   2.8118   2.8250
     2.8306   2.8313   2.8480   2.8610   2.8660   2.8787   2.8937   2.8953
     2.8979   2.9006   2.9053   2.9191   2.9192   2.9698   2.9765   2.9845
     3.0026   3.0185   3.0231   3.0294   3.0640   3.0752   3.0915   3.1064
     3.1113   3.1230   3.1447   3.1693   3.1707   3.1760   3.1880   3.1955
     3.2073   3.2210   3.2239   3.2249   3.2427   3.2598   3.2738   3.2934
     3.3061   3.3062   3.3099   3.3187   3.3244   3.3295   3.3393   3.3466
     3.3480   3.3514   3.3578   3.3598   3.3674   3.3858   3.3859   3.4079
     3.4116   3.4165   3.4366   3.4426   3.4469   3.4472   3.4623   3.4730
     3.4783   3.4857   3.4912   3.5042   3.5053   3.5071   3.5224   3.5241
     3.5342   3.5375   3.5395   3.5529   3.5531   3.5614   3.5626   3.5864
     3.5890   3.5924   3.5970   3.5983   3.6086   3.6103   3.6134   3.6173
     3.6175   3.6215   3.6307   3.6497   3.6545   3.6588   3.6702   3.6737
     3.6918   3.7059   3.7139   3.7154   3.7246   3.7370   3.7468   3.7480
     3.7593   3.7634   3.7662   3.7778   3.7921   3.7956   3.8030   3.8127
     3.8146   3.8272   3.8287   3.8381   3.8391   3.8500   3.8542   3.8569
     3.8702   3.8712   3.8803   3.8817   3.8922   3.8936   3.9000   3.9185
     3.9309   3.9343   3.9355   3.9449   3.9521   3.9628   3.9725   3.9744
     3.9762   3.9807   3.9832   3.9974   3.9978   4.0053   4.0098   4.0103
     4.0234   4.0302   4.0306   4.0334   4.0358   4.0641   4.0661   4.0664
     4.0745   4.0780   4.0783   4.0811   4.0927   4.0957   4.0958   4.0963
     4.1010   4.1053   4.1109   4.1115   4.1282   4.1300   4.1321   4.1376
     4.1380   4.1484   4.1501   4.1529   4.1538   4.1585   4.1610   4.1692
     4.1747   4.1826   4.1832   4.1911   4.1930   4.1986   4.1989   4.2054
     4.2082   4.2084   4.2086   4.2186   4.2190   4.2227   4.2241   4.2285
     4.2287   4.2299   4.2312   4.2346   4.2473   4.2505   4.2508   4.2648
     4.2668   4.2697   4.2730   4.2863   4.2919   4.2934   4.2939   4.2994
     4.3026   4.3031   4.3036   4.3122   4.3216   4.3228   4.3297   4.3322
     4.3331   4.3512   4.3527   4.3542   4.3572   4.3622   4.3650   4.3763
     4.3879   4.3934   4.3963   4.3965   4.3982   4.4039   4.4058   4.4127
     4.4320   4.4340   4.4355   4.4399   4.4594   4.4609   4.4648   4.4714
     4.4753   4.4803   4.4953   4.4989   4.5038   4.5142   4.5242   4.5337
     4.5345   4.5366   4.5409   4.5423   4.5478   4.5557   4.5560   4.5759
     4.5821   4.5829   4.5896   4.6009   4.6067   4.6098   4.6191   4.6215
     4.6236   4.6272   4.6341   4.6385   4.6426   4.6622   4.6655   4.6784
     4.6851   4.6852   4.6883   4.6904   4.6926   4.6995   4.7013   4.7084
     4.7145   4.7179   4.7231   4.7244   4.7267   4.7276   4.7345   4.7483
     4.7554   4.7580   4.7639   4.7676   4.7863   4.7892   4.7894   4.7961
     4.8184   4.8188   4.8335   4.8366   4.8403   4.8431   4.8488   4.8634
     4.8756   4.9099   4.9105   4.9153   4.9207   4.9263   4.9273   4.9281
     4.9331   4.9425   4.9470   4.9569   4.9628   4.9677   4.9680   4.9753
     5.0071   5.0128   5.0132   5.0153   5.0189   5.0218   5.0322   5.0347
     5.0508   5.0563   5.0592   5.0700   5.0704   5.0714   5.0742   5.0773
     5.0860   5.0942   5.1000   5.1038   5.1231   5.1253   5.1291   5.1432
     5.1485   5.1551   5.1557   5.1566   5.1704   5.1726   5.1741   5.1831
     5.1843   5.1871   5.1946   5.2086   5.2145   5.2193   5.2265   5.2279
     5.2300   5.2301   5.2380   5.2443   5.2605   5.2608   5.2722   5.2808
     5.2816   5.2973   5.3036   5.3156   5.3206   5.3216   5.3269   5.3280
     5.3348   5.3478   5.3480   5.3556   5.3563   5.3609   5.3720   5.3766
     5.3789   5.3919   5.3928   5.3978   5.4003   5.4067   5.4106   5.4192
     5.4234   5.4377   5.4435   5.4509   5.4563   5.4638   5.4674   5.4717
     5.4914   5.4970   5.4986   5.4987   5.5064   5.5138   5.5192   5.5194
     5.5268   5.5272   5.5293   5.5309   5.5333   5.5358   5.5432   5.5435
     5.5519   5.5581   5.5650   5.5777   5.5797   5.5871   5.5922   5.5939
     5.6078   5.6101   5.6219   5.6223   5.6238   5.6302   5.6342   5.6355
     5.6399   5.6521   5.6756   5.6794   5.6939   5.6945   5.6965   5.6966
     5.6974   5.7011   5.7089   5.7149   5.7197   5.7258   5.7412   5.7515
     5.7562   5.7609   5.7629   5.7679   5.7855   5.7909   5.7926   5.7939
     5.7962   5.8007   5.8068   5.8184   5.8230   5.8261   5.8403   5.8620
     5.8641   5.8728   5.8749   5.8764   5.9010   5.9080   5.9080   5.9156
     5.9218   5.9290   5.9377   5.9397   5.9515   5.9525   5.9543   5.9552
     5.9558   5.9563   5.9587   5.9701   5.9748   5.9805   5.9884   6.0003
     6.0127   6.0186   6.0289   6.0317   6.0322   6.0437   6.0463   6.0528
     6.0604   6.0629   6.0724   6.0787   6.0884   6.0909   6.0924   6.1030
     6.1039   6.1065   6.1077   6.1206   6.1214   6.1241   6.1345   6.1462
     6.1472   6.1472   6.1479   6.1492   6.1498   6.1559   6.1559   6.1562
     6.1643   6.1673   6.1731   6.1747   6.1755   6.1800   6.1805   6.1841
     6.1869   6.2013   6.2036   6.2101   6.2154   6.2190   6.2196   6.2201
     6.2270   6.2324   6.2326   6.2368   6.2426   6.2440   6.2480   6.2518
     6.2558   6.2598   6.2607   6.2774   6.2810   6.2855   6.2888   6.2921
     6.3053   6.3209   6.3260   6.3261   6.3308   6.3347   6.3348   6.3379
     6.3424   6.3537   6.3576   6.3638   6.3809   6.3809   6.3856   6.3877
     6.3911   6.3920   6.4026   6.4072   6.4199   6.4233   6.4266   6.4346
     6.4420   6.4422   6.4529   6.4676   6.4812   6.4813   6.4921   6.4973
     6.5015   6.5031   6.5102   6.5104   6.5115   6.5152   6.5188   6.5318
     6.5375   6.5400   6.5406   6.5469   6.5492   6.5497   6.5573   6.5639
     6.5678   6.5812   6.5978   6.5995   6.6074   6.6150   6.6351   6.6462
     6.6594   6.6613   6.6647   6.6675   6.7075   6.7673   6.7707   6.7858
     6.8184   6.8232   6.8331   6.8357   6.8426   6.8497   6.9117   6.9228
     6.9711   7.0300   7.0385   7.0593   7.1255   7.1762   7.1870   7.2484
     7.2757   7.2824   7.3263   7.3457   7.3470   7.4137   7.4282   7.5203
     7.5369   7.5600   7.5887   7.6640   7.6745   7.8111   7.8643   7.8947
     7.9624   8.0189   8.0371   8.0873   8.1269   8.1448   8.1658   8.2465
     8.2605   8.2863   8.3483   8.3509   8.3646   8.5789   8.6162   8.7692
     8.7778   8.8022   8.8811   8.9239   8.9536   8.9939   9.0042   9.0264
     9.0301   9.0949   9.1234   9.1890   9.2665   9.3013   9.3082   9.4093
     9.4170   9.4699   9.4730   9.4747   9.6377   9.6380   9.6381   9.6859
     9.7734   9.7989   9.8382   9.8461   9.8570   9.9280   9.9888  10.0033
    10.0539  10.0796  10.1181  10.1338  10.2084  10.2790  10.3040  10.3669
    10.3903  10.5122  10.5469  10.5824  10.5972  10.6120  10.7552  10.7869
    10.8615  10.8783  10.8846  10.8935  10.9459  11.0970  11.1787  11.2046
    11.2234  11.2673  11.2953  11.3708  11.3916  11.5076  11.5900  11.6101
    11.6902  11.6990  11.7291  11.7681  11.9385  11.9503  12.0033  12.0397
    12.0777  12.1099  12.1187  12.1584  12.2228  12.2392  12.2483  12.2768
    12.2801  12.3202  12.3316  12.4733  12.4820  12.5525  12.5627  12.5662
    12.5673  12.6027  12.6306  12.6484  12.7156  12.7314  12.7610  12.7797
    12.8587  12.8742  12.9351  12.9476  12.9989  13.0058  13.0061  13.0137
    13.0743  13.1327  13.1345  13.1405  13.2139  13.2628  13.2668  13.3322
    13.3371  13.3808  13.4399  13.5181  13.5367  13.5406  13.5441  13.5625
    13.6195  13.6481  13.6859  13.7196  13.7468  13.7480  13.7610  13.8519
    13.8605  13.8627  13.8814  13.8838  13.9067  14.0045  14.1284  14.1493
    14.1992  14.2333  14.2537  14.2622  14.2766  14.3161  14.3236  14.3519
    14.3600  14.3670  14.4039  14.4674  14.4867  14.5878

          k = 0.4167 0.0962 0.0000 (110125 PWs)   bands (ev):

    -0.5876  -0.3681  -0.2497  -0.0350   0.2427   0.4510   0.7500   0.8163
     0.9340   1.0199   1.0259   1.1687   1.1953   1.3393   1.3532   1.4024
     1.4232   1.4555   1.5407   1.5603   1.5752   1.6066   1.6083   1.6470
     1.6540   1.6936   1.7254   1.7427   1.7555   1.7632   1.7975   1.8360
     1.8383   1.8516   1.8536   1.8582   1.8898   1.9268   1.9310   1.9355
     1.9417   1.9442   1.9645   1.9685   1.9729   1.9864   1.9923   2.0083
     2.0150   2.0435   2.0592   2.0854   2.0886   2.1027   2.1097   2.1378
     2.1386   2.1458   2.1685   2.1984   2.1985   2.2043   2.2167   2.2246
     2.2308   2.2415   2.2445   2.2512   2.2803   2.2892   2.3080   2.3260
     2.3318   2.3433   2.3436   2.3477   2.3549   2.3553   2.3929   2.4009
     2.4163   2.4224   2.4283   2.4284   2.4306   2.4665   2.4878   2.4890
     2.4985   2.5136   2.5202   2.5322   2.5393   2.5476   2.5522   2.5642
     2.5681   2.5683   2.5776   2.5825   2.5924   2.5963   2.6072   2.6191
     2.6211   2.6600   2.6683   2.6792   2.6824   2.6989   2.7040   2.7048
[...]
     4.2249   4.2319   4.2337   4.2362   4.2405   4.2452   4.2466   4.2529
     4.2576   4.2619   4.2644   4.2646   4.2647   4.2692   4.2794   4.2795
     4.2896   4.2896   4.2896   4.2940   4.3101   4.3113   4.3136   4.3137
     4.3176   4.3242   4.3320   4.3352   4.3391   4.3408   4.3438   4.3498
     4.3581   4.3693   4.3780   4.3811   4.3812   4.3900   4.3908   4.3985
     4.4064   4.4095   4.4116   4.4131   4.4228   4.4285   4.4363   4.4387
     4.4400   4.4442   4.4468   4.4492   4.4591   4.4654   4.4716   4.4751
     4.4814   4.4815   4.5034   4.5153   4.5197   4.5280   4.5361   4.5483
     4.5542   4.5637   4.5768   4.5777   4.5788   4.5805   4.5828   4.5843
     4.5867   4.5903   4.5915   4.5951   4.6013   4.6078   4.6095   4.6122
     4.6278   4.6308   4.6327   4.6435   4.6456   4.6542   4.6545   4.6567
     4.6644   4.6663   4.6740   4.6745   4.6793   4.6841   4.6879   4.6990
     4.7018   4.7020   4.7092   4.7120   4.7154   4.7210   4.7319   4.7319
     4.7354   4.7528   4.7556   4.7613   4.7757   4.7842   4.7950   4.8105
     4.8106   4.8115   4.8123   4.8157   4.8239   4.8460   4.8572   4.8615
     4.8659   4.8702   4.8792   4.8812   4.8835   4.8952   4.9028   4.9057
     4.9127   4.9264   4.9424   4.9487   4.9505   4.9542   4.9568   4.9599
     4.9688   4.9778   4.9813   4.9824   4.9957   5.0013   5.0015   5.0041
     5.0078   5.0112   5.0128   5.0270   5.0296   5.0313   5.0385   5.0472
     5.0558   5.0689   5.0744   5.0797   5.0993   5.0995   5.1038   5.1108
     5.1176   5.1192   5.1237   5.1379   5.1400   5.1423   5.1486   5.1786
     5.1880   5.1901   5.1920   5.1935   5.1993   5.2005   5.2363   5.2403
     5.2448   5.2506   5.2511   5.2562   5.2675   5.2733   5.2741   5.2746
     5.2746   5.3005   5.3232   5.3283   5.3488   5.3517   5.3590   5.3607
     5.3613   5.3631   5.3689   5.3695   5.3796   5.3901   5.3939   5.4086
     5.4135   5.4212   5.4300   5.4329   5.4353   5.4397   5.4443   5.4478
     5.4520   5.4582   5.4670   5.4746   5.4757   5.4759   5.4819   5.4835
     5.4862   5.4929   5.4969   5.5077   5.5124   5.5276   5.5318   5.5325
     5.5351   5.5352   5.5462   5.5619   5.5659   5.5666   5.5752   5.5810
     5.5823   5.5881   5.5894   5.6005   5.6086   5.6165   5.6188   5.6235
     5.6323   5.6461   5.6587   5.6600   5.6670   5.6702   5.6704   5.6729
     5.6741   5.6834   5.6846   5.6851   5.6972   5.7018   5.7039   5.7384
     5.7510   5.7524   5.7552   5.7618   5.7627   5.7682   5.7695   5.7792
     5.7851   5.7867   5.7939   5.8025   5.8086   5.8158   5.8219   5.8262
     5.8307   5.8337   5.8399   5.8419   5.8442   5.8487   5.8631   5.8634
     5.8667   5.8698   5.8957   5.8960   5.8989   5.9032   5.9063   5.9219
     5.9248   5.9261   5.9413   5.9515   5.9527   5.9698   5.9725   5.9794
     5.9809   5.9827   5.9922   5.9939   6.0057   6.0070   6.0209   6.0247
     6.0351   6.0398   6.0408   6.0443   6.0447   6.0466   6.0595   6.0628
     6.0647   6.0742   6.0754   6.0786   6.0791   6.0815   6.0988   6.1019
     6.1183   6.1249   6.1336   6.1390   6.1401   6.1461   6.1504   6.1530
     6.1534   6.1663   6.1707   6.1743   6.1774   6.1782   6.1850   6.1852
     6.1854   6.1854   6.1949   6.1951   6.2033   6.2040   6.2041   6.2153
     6.2164   6.2165   6.2173   6.2205   6.2223   6.2223   6.2273   6.2300
     6.2344   6.2347   6.2434   6.2439   6.2494   6.2503   6.2574   6.2652
     6.2653   6.2660   6.2751   6.2811   6.2943   6.2979   6.2992   6.3061
     6.3108   6.3220   6.3309   6.3320   6.3323   6.3394   6.3443   6.3451
     6.3646   6.3681   6.3738   6.3790   6.3790   6.3867   6.3868   6.3915
     6.4053   6.4064   6.4064   6.4065   6.4103   6.4119   6.4176   6.4305
     6.4358   6.4447   6.4448   6.4486   6.4546   6.4572   6.4594   6.4615
     6.4770   6.4799   6.4816   6.4931   6.5002   6.5127   6.5159   6.5166
     6.5280   6.5281   6.5308   6.5322   6.5519   6.5562   6.5590   6.5598
     6.5634   6.5648   6.5712   6.5799   6.5894   6.6244   6.6253   6.6373
     6.6391   6.6464   6.6477   6.6611   6.6613   6.6868   6.6885   6.7005
     6.7037   6.7073   6.7103   6.7129   6.7859   6.7900   6.8084   6.8305
     6.9009   6.9038   6.9631   7.0369   7.0449   7.0525   7.0565   7.0719
     7.0725   7.1245   7.1588   7.1977   7.2155   7.3104   7.3472   7.3800
     7.4951   7.5687   7.5833   7.6056   7.6135   7.6510   7.6810   7.6836
     7.8155   7.8625   7.8906   7.8962   7.9145   8.1150   8.2540   8.2719
     8.3436   8.4011   8.4280   8.4910   8.5024   8.5654   8.5743   8.5797
     8.6556   8.7093   8.7554   8.9269   8.9832   9.0182   9.0192   9.0663
     9.1224   9.1774   9.2274   9.3042   9.3184   9.4021   9.4168   9.4511
     9.5027   9.5993   9.6119   9.6257   9.6730   9.7538   9.8262   9.8455
     9.8883   9.8993   9.9024   9.9146   9.9212   9.9251  10.0438  10.1069
    10.1184  10.1417  10.2201  10.2489  10.2961  10.4139  10.4217  10.4617
    10.4933  10.5331  10.5512  10.5535  10.5841  10.6277  10.7317  10.7646
    10.8097  10.8576  10.8739  11.0009  11.0368  11.0519  11.0606  11.0827
    11.1012  11.1538  11.2436  11.2807  11.2940  11.2965  11.3894  11.4190
    11.4985  11.5453  11.5492  11.5827  11.6985  11.7827  11.8596  11.8924
    11.9460  12.0280  12.0836  12.0926  12.1211  12.1903  12.1921  12.2857
    12.3050  12.3446  12.3496  12.3900  12.3904  12.4533  12.4784  12.4984
    12.5622  12.5983  12.6506  12.6596  12.6903  12.7778  12.8317  12.8747
    12.9365  12.9772  12.9826  13.0402  13.0763  13.1129  13.1502  13.1663
    13.1688  13.2451  13.2626  13.2769  13.2790  13.3242  13.3736  13.3754
    13.4158  13.4832  13.5247  13.5417  13.5421  13.6271  13.6399  13.6619
    13.7079  13.7485  13.7665  13.7676  13.8268  13.8337  13.9447  13.9555
    13.9646  14.0389  14.0431  14.0745  14.0913  14.1427  14.1921  14.2056
    14.2442  14.2495  14.3200  14.3759  14.3760  14.3764  14.3829  14.4089
    14.4883  14.4987  14.5307  14.5316  14.5551  14.5980

     the Fermi energy is     8.2690 ev

!    total energy              =  -14692.71339635 Ry
     estimated scf accuracy    <       0.00000005 Ry
     smearing contrib. (-TS)   =       0.18970294 Ry
     internal energy E=F+TS    =  -14692.90309929 Ry

     The total energy is F=E-TS. E is the sum of the following terms:
     one-electron contribution =  -67798.55954755 Ry
     hartree contribution      =   35396.80842653 Ry
     xc contribution           =   -7102.01600357 Ry
     ewald contribution        =   24810.86402531 Ry

     convergence has been achieved in  22 iterations

     negative rho (up, down):  3.918E+00 0.000E+00

     Forces acting on atoms (cartesian axes, Ry/au):

     atom    1 type  1   force =     0.00000000   -0.00165197    0.02672595
     atom    2 type  1   force =    -0.00000212   -0.00165214    0.02672386
     atom    3 type  1   force =     0.00000000   -0.00165351    0.02672353
     atom    4 type  1   force =     0.00000000   -0.00165181    0.02672601
     atom    5 type  1   force =     0.00000212   -0.00165214    0.02672386
     atom    6 type  1   force =    -0.00000203   -0.00165203    0.02672381
     atom    7 type  1   force =     0.00000000   -0.00165348    0.02672376
     atom    8 type  1   force =     0.00000203   -0.00165203    0.02672381
     atom    9 type  1   force =    -0.00000237    0.00335949   -0.01658839
     atom   10 type  1   force =    -0.00000245    0.00335867   -0.01658810
     atom   11 type  1   force =     0.00000245    0.00335867   -0.01658810
     atom   12 type  1   force =    -0.00000242    0.00335944   -0.01658829
     atom   13 type  1   force =     0.00000245    0.00335866   -0.01658814
     atom   14 type  1   force =     0.00000237    0.00335949   -0.01658839
     atom   15 type  1   force =    -0.00000245    0.00335866   -0.01658814
     atom   16 type  1   force =     0.00000242    0.00335944   -0.01658829
     atom   17 type  1   force =    -0.00000215   -0.00160341   -0.00968209
     atom   18 type  1   force =    -0.00000211   -0.00160318   -0.00968210
     atom   19 type  1   force =     0.00000000   -0.00160364   -0.00968054
     atom   20 type  1   force =     0.00000000   -0.00160351   -0.00968394
     atom   21 type  1   force =     0.00000215   -0.00160341   -0.00968209
     atom   22 type  1   force =     0.00000000   -0.00160332   -0.00968378
     atom   23 type  1   force =     0.00000211   -0.00160318   -0.00968210
     atom   24 type  1   force =     0.00000000   -0.00160340   -0.00968061
     atom   25 type  1   force =    -0.00000219    0.00056141   -0.00389918
     atom   26 type  1   force =     0.00000178   -0.00053364    0.00452002
     atom   27 type  1   force =     0.00000000    0.00056107   -0.00389945
     atom   28 type  1   force =     0.00000219    0.00056141   -0.00389918
     atom   29 type  1   force =    -0.00000188   -0.00053371    0.00452108
     atom   30 type  1   force =    -0.00000178   -0.00053364    0.00452002
     atom   31 type  1   force =    -0.00000228    0.00056142   -0.00389912
     atom   32 type  1   force =     0.00000000    0.00056102   -0.00389937
     atom   33 type  1   force =     0.00000228    0.00056142   -0.00389912
     atom   34 type  1   force =     0.00000000    0.00056164   -0.00389771
     atom   35 type  1   force =    -0.00000186   -0.00053377    0.00452109
     atom   36 type  1   force =    -0.00000179   -0.00053363    0.00452000
     atom   37 type  1   force =     0.00000188   -0.00053371    0.00452108
     atom   38 type  1   force =     0.00000186   -0.00053377    0.00452109
     atom   39 type  1   force =     0.00000000    0.00056162   -0.00389761
     atom   40 type  1   force =     0.00000179   -0.00053363    0.00452000
     atom   41 type  1   force =     0.00000192   -0.00045141   -0.00052980
     atom   42 type  1   force =     0.00000000    0.00028658   -0.00076089
     atom   43 type  1   force =    -0.00000225    0.00028755   -0.00076167
     atom   44 type  1   force =     0.00000000    0.00028798   -0.00076299
     atom   45 type  1   force =    -0.00000235   -0.00045185   -0.00053038
     atom   46 type  1   force =    -0.00000225    0.00028755   -0.00076171
     atom   47 type  1   force =     0.00000000    0.00028797   -0.00076295
     atom   48 type  1   force =     0.00000225    0.00028755   -0.00076171
     atom   49 type  1   force =    -0.00000236   -0.00045184   -0.00053045
     atom   50 type  1   force =    -0.00000192   -0.00045141   -0.00052980
     atom   51 type  1   force =    -0.00000195   -0.00045144   -0.00052987
     atom   52 type  1   force =     0.00000195   -0.00045144   -0.00052987
     atom   53 type  1   force =     0.00000235   -0.00045185   -0.00053038
     atom   54 type  1   force =     0.00000000    0.00028663   -0.00076095
     atom   55 type  1   force =     0.00000225    0.00028755   -0.00076167
     atom   56 type  1   force =     0.00000236   -0.00045184   -0.00053045
     atom   57 type  1   force =    -0.00000126   -0.00018596    0.00040910
     atom   58 type  1   force =     0.00000127   -0.00018593    0.00040909
     atom   59 type  1   force =     0.00000000    0.00019574   -0.00056136
     atom   60 type  1   force =    -0.00000127   -0.00018593    0.00040909
     atom   61 type  1   force =    -0.00000157   -0.00018613    0.00040929
     atom   62 type  1   force =    -0.00000156   -0.00018620    0.00040926
     atom   63 type  1   force =     0.00000157   -0.00018613    0.00040929
     atom   64 type  1   force =    -0.00000244    0.00019642   -0.00056206
     atom   65 type  1   force =    -0.00000243    0.00019663   -0.00056208
     atom   66 type  1   force =     0.00000000    0.00019588   -0.00056129
     atom   67 type  1   force =     0.00000244    0.00019642   -0.00056206
     atom   68 type  1   force =     0.00000000    0.00019598   -0.00056291
     atom   69 type  1   force =     0.00000156   -0.00018620    0.00040926
     atom   70 type  1   force =     0.00000126   -0.00018596    0.00040910
     atom   71 type  1   force =     0.00000243    0.00019663   -0.00056208
     atom   72 type  1   force =     0.00000000    0.00019621   -0.00056285
     atom   73 type  1   force =    -0.00000240    0.00018759   -0.00041117
     atom   74 type  1   force =     0.00000000    0.00018713   -0.00041137
     atom   75 type  1   force =     0.00000240    0.00018759   -0.00041117
     atom   76 type  1   force =    -0.00000243   -0.00019559    0.00056056
     atom   77 type  1   force =    -0.00000179   -0.00019452    0.00056068
     atom   78 type  1   force =    -0.00000186   -0.00019455    0.00056066
     atom   79 type  1   force =    -0.00000236    0.00018748   -0.00041100
     atom   80 type  1   force =     0.00000000    0.00018716   -0.00041155
     atom   81 type  1   force =     0.00000236    0.00018748   -0.00041100
     atom   82 type  1   force =     0.00000000    0.00018812   -0.00041225
     atom   83 type  1   force =     0.00000000    0.00018814   -0.00041232
     atom   84 type  1   force =    -0.00000244   -0.00019568    0.00056052
     atom   85 type  1   force =     0.00000179   -0.00019452    0.00056068
     atom   86 type  1   force =     0.00000186   -0.00019455    0.00056066
     atom   87 type  1   force =     0.00000243   -0.00019559    0.00056056
     atom   88 type  1   force =     0.00000244   -0.00019568    0.00056052
     atom   89 type  1   force =     0.00000000    0.00045178    0.00053682
     atom   90 type  1   force =     0.00000000    0.00045187    0.00053680
     atom   91 type  1   force =    -0.00000331    0.00045268    0.00053701
     atom   92 type  1   force =    -0.00000327    0.00045264    0.00053689
     atom   93 type  1   force =     0.00000000    0.00045205    0.00053638
     atom   94 type  1   force =     0.00000331    0.00045268    0.00053701
     atom   95 type  1   force =    -0.00000238   -0.00028642    0.00076461
     atom   96 type  1   force =    -0.00000242   -0.00028662    0.00076572
     atom   97 type  1   force =     0.00000242   -0.00028662    0.00076572
     atom   98 type  1   force =    -0.00000237   -0.00028647    0.00076454
     atom   99 type  1   force =    -0.00000240   -0.00028666    0.00076562
     atom  100 type  1   force =     0.00000240   -0.00028666    0.00076562
     atom  101 type  1   force =     0.00000238   -0.00028642    0.00076461
     atom  102 type  1   force =     0.00000237   -0.00028647    0.00076454
     atom  103 type  1   force =     0.00000000    0.00045215    0.00053632
     atom  104 type  1   force =     0.00000327    0.00045264    0.00053689
     atom  105 type  1   force =     0.00000165   -0.00056054    0.00389332
     atom  106 type  1   force =     0.00000000    0.00053522   -0.00452621
     atom  107 type  1   force =     0.00000259    0.00053423   -0.00452581
     atom  108 type  1   force =     0.00000000    0.00053313   -0.00452519
     atom  109 type  1   force =    -0.00000161   -0.00056055    0.00389335
     atom  110 type  1   force =    -0.00000165   -0.00056054    0.00389332
     atom  111 type  1   force =    -0.00000110   -0.00056095    0.00389269
     atom  112 type  1   force =    -0.00000111   -0.00056103    0.00389268
     atom  113 type  1   force =     0.00000110   -0.00056095    0.00389269
     atom  114 type  1   force =     0.00000111   -0.00056103    0.00389268
     atom  115 type  1   force =     0.00000161   -0.00056055    0.00389335
     atom  116 type  1   force =    -0.00000263    0.00053399   -0.00452586
     atom  117 type  1   force =    -0.00000259    0.00053423   -0.00452581
     atom  118 type  1   force =     0.00000000    0.00053502   -0.00452625
     atom  119 type  1   force =     0.00000263    0.00053399   -0.00452586
     atom  120 type  1   force =     0.00000000    0.00053294   -0.00452519
     atom  121 type  1   force =     0.00000267   -0.00335872    0.01658434
     atom  122 type  1   force =     0.00000000   -0.00335821    0.01658601
     atom  123 type  1   force =    -0.00000134    0.00160149    0.00967655
     atom  124 type  1   force =     0.00000134    0.00160149    0.00967655
     atom  125 type  1   force =     0.00000129    0.00160018    0.00967967
     atom  126 type  1   force =    -0.00000272   -0.00335871    0.01658426
     atom  127 type  1   force =    -0.00000267   -0.00335872    0.01658434
     atom  128 type  1   force =     0.00000000   -0.00335881    0.01658362
     atom  129 type  1   force =     0.00000000   -0.00335878    0.01658370
     atom  130 type  1   force =     0.00000272   -0.00335871    0.01658426
     atom  131 type  1   force =     0.00000000   -0.00335830    0.01658598
     atom  132 type  1   force =    -0.00000129    0.00160021    0.00967968
     atom  133 type  1   force =    -0.00000129    0.00160018    0.00967967
     atom  134 type  1   force =    -0.00000130    0.00160152    0.00967656
     atom  135 type  1   force =     0.00000130    0.00160152    0.00967656
     atom  136 type  1   force =     0.00000129    0.00160021    0.00967968
     atom  137 type  1   force =    -0.00000119    0.00164797   -0.02671320
     atom  138 type  1   force =     0.00000031    0.00165038   -0.02671020
     atom  139 type  1   force =    -0.00000021    0.00165045   -0.02671001
     atom  140 type  1   force =    -0.00000031    0.00165038   -0.02671020
     atom  141 type  1   force =     0.00000121    0.00164807   -0.02671350
     atom  142 type  1   force =     0.00000119    0.00164797   -0.02671320
     atom  143 type  1   force =    -0.00000121    0.00164807   -0.02671350
     atom  144 type  1   force =     0.00000021    0.00165045   -0.02671001

     Total force =     0.134889     Total SCF correction =     0.000986
 
     init_run     :    324.66s CPU     46.93s WALL (       1 calls)
     electrons    :  22357.02s CPU   2865.37s WALL (       1 calls)
     forces       :    152.80s CPU     19.70s WALL (       1 calls)

     Called by init_run:
     wfcinit      :    317.35s CPU     44.52s WALL (       1 calls)
     potinit      :      2.02s CPU      0.29s WALL (       1 calls)
     hinit0       :      2.27s CPU      0.78s WALL (       1 calls)

     Called by electrons:
     c_bands      :  20474.86s CPU   2620.94s WALL (      23 calls)
     sum_band     :   1802.43s CPU    232.17s WALL (      23 calls)
     v_of_rho     :     23.77s CPU      3.20s WALL (      23 calls)
     newd         :     47.49s CPU      8.00s WALL (      23 calls)
     mix_rho      :      8.00s CPU      1.10s WALL (      23 calls)

     Called by c_bands:
     init_us_2    :     65.74s CPU      8.37s WALL (     432 calls)
     cegterg      :  20130.80s CPU   2577.01s WALL (     207 calls)

     Called by *egterg:
     cdiaghg      :   6873.25s CPU    879.78s WALL (    1606 calls)
     h_psi        :   6695.97s CPU    853.06s WALL (    1624 calls)
     s_psi        :   1271.86s CPU    160.44s WALL (    1624 calls)
     g_psi        :     16.60s CPU      2.09s WALL (    1408 calls)

     Called by h_psi:
     h_psi:calbec :   1483.19s CPU    187.09s WALL (    1624 calls)
     vloc_psi     :   3873.84s CPU    494.19s WALL (    1624 calls)
     add_vuspsi   :   1304.44s CPU    164.77s WALL (    1624 calls)

     General routines
     calbec       :   2207.92s CPU    278.34s WALL (    1867 calls)
     fft          :     11.64s CPU      1.60s WALL (     309 calls)
     ffts         :      0.83s CPU      0.12s WALL (      46 calls)
     fftw         :   4532.45s CPU    578.95s WALL ( 1072990 calls)
     interpolate  :      1.57s CPU      0.21s WALL (      23 calls)
 
     Parallel routines
     fft_scatt_xy :    470.92s CPU     59.46s WALL ( 1073345 calls)
     fft_scatt_yz :   2489.36s CPU    322.24s WALL ( 1073345 calls)
 
     PWSCF        :      6h20m CPU  48m52.19s WALL

 
   This run was terminated on:   6:16:28   8Sep2021            

=------------------------------------------------------------------------------=
   JOB DONE.
=------------------------------------------------------------------------------=
