
     Program PWSCF v.6.6 starts on  8Sep2021 at  2:36:22 

     This program is part of the open-source Quantum ESPRESSO suite
     for quantum simulation of materials; please cite
         "P. Giannozzi et al., J. Phys.:Condens. Matter 21 395502 (2009);
         "P. Giannozzi et al., J. Phys.:Condens. Matter 29 465901 (2017);
          URL http://www.quantum-espresso.org", 
     in publications or presentations arising from this work. More details at
     http://www.quantum-espresso.org/quote

     Parallel version (MPI & OpenMP), running on     384 processor cores
     Number of MPI processes:               192
     Threads/MPI process:                     2

     MPI processes distributed on     8 nodes
     R & G space division:  proc/nbgrp/npool/nimage =     192
     Fft bands division:     nmany     =       1
     Reading input from ../inputs/input_ausurf_36

     Current dimensions of program PWSCF are:
     Max number of different atomic species (ntypx) = 10
     Max number of k-points (npk) =  40000
     Max angular momentum in pseudopotentials (lmaxx) =  3

     Subspace diagonalization in iterative solution of the eigenvalue problem:
     one sub-group per band group will be used
     ELPA distributed-memory algorithm (size of sub-group: 13* 13 procs)

     Found symmetry operation: I + ( -0.5000  0.0000  0.0000)
     This is a supercell, fractional translations are disabled
 
     Parallelization info
     --------------------
     sticks:   dense  smooth     PW     G-vecs:    dense   smooth      PW
     Min          15       7      1                 3685     1125     127
     Max          16       8      2                 3738     1161     184
     Sum        2995    1367    379               712611   220327   32927
 

     Title: 
      Ausurf                                                                    


     bravais-lattice index     =            8
     lattice parameter (alat)  =      11.1494  a.u.
     unit-cell volume          =    6444.4936 (a.u.)^3
     number of atoms/cell      =           36
     number of atomic types    =            1
     number of electrons       =       396.00
     number of Kohn-Sham states=          238
     kinetic-energy cutoff     =      40.0000  Ry
     charge density cutoff     =     350.0000  Ry
     convergence threshold     =      1.0E-06
     mixing beta               =       0.7000
     number of iterations used =            8  TF        mixing
     Exchange-correlation=  SLA  PW   PBE  PBE
                           (   1   4   3   4   0   0   0)

     celldm(1)=  11.149384  celldm(2)=   0.866025  celldm(3)=   5.369150
     celldm(4)=   0.000000  celldm(5)=   0.000000  celldm(6)=   0.000000

     crystal axes: (cart. coord. in units of alat)
               a(1) = (   1.000000   0.000000   0.000000 )  
               a(2) = (   0.000000   0.866025   0.000000 )  
               a(3) = (   0.000000   0.000000   5.369150 )  

     reciprocal axes: (cart. coord. in units 2 pi/alat)
               b(1) = (  1.000000  0.000000  0.000000 )  
               b(2) = (  0.000000  1.154701  0.000000 )  
               b(3) = (  0.000000  0.000000  0.186249 )  


     PseudoPot. # 1 for Au read from file:
     /marconi/home/userexternal/czeni000/dft_src/pseudo/Au.pbe-nd-van.UPF
     MD5 check sum: deb5c07af10777505a79e28f5b4b4115
     Pseudo is Ultrasoft + core correction, Zval = 11.0
     Generated by new atomic code, or converted to UPF format
     Using radial grid of  985 points,  3 beta functions with: 
                l(1) =   1
                l(2) =   2
                l(3) =   2
     Q(r) pseudized with  8 coefficients,  rinner =    1.100   1.100   1.100
                                                       1.100   1.100

     atomic species   valence    mass     pseudopotential
        Au            11.00   196.96000     Au( 1.00)

      2 Sym. Ops. (no inversion) found



   Cartesian axes

     site n.     atom                  positions (alat units)
         1           Au  tau(   1) = (   0.0000000   0.0000000   0.0000000  )
         2           Au  tau(   2) = (   0.5000000   0.0000000   0.0000000  )
         3           Au  tau(   3) = (   0.2500000   0.1443376   0.4082483  )
         4           Au  tau(   4) = (   0.7500000   0.1443376   0.4082483  )
         5           Au  tau(   5) = (   0.5000000   0.5773503   0.4082483  )
         6           Au  tau(   6) = (   1.0000000   0.5773503   0.4082483  )
         7           Au  tau(   7) = (   0.5000000   0.2886751   0.8164966  )
         8           Au  tau(   8) = (   1.0000000   0.2886751   0.8164966  )
         9           Au  tau(   9) = (   0.2500000   0.7216878   0.8164966  )
        10           Au  tau(  10) = (   0.7500000   0.7216878   0.8164966  )
        11           Au  tau(  11) = (   0.0000000   0.0000000   1.2247449  )
        12           Au  tau(  12) = (   0.5000000   0.0000000   1.2247449  )
        13           Au  tau(  13) = (   0.2500000   0.4330127   1.2247449  )
        14           Au  tau(  14) = (   0.7500000   0.4330127   1.2247449  )
        15           Au  tau(  15) = (   1.0000000   0.5773503   1.6329932  )
        16           Au  tau(  16) = (   0.2500000   0.1443376   1.6329932  )
        17           Au  tau(  17) = (   0.7500000   0.1443376   1.6329932  )
        18           Au  tau(  18) = (   0.5000000   0.5773503   1.6329932  )
        19           Au  tau(  19) = (   0.5000000   0.2886751   2.0412415  )
        20           Au  tau(  20) = (   1.0000000   0.2886751   2.0412415  )
        21           Au  tau(  21) = (   0.2500000   0.7216878   2.0412415  )
        22           Au  tau(  22) = (   0.7500000   0.7216878   2.0412415  )
        23           Au  tau(  23) = (   0.0000000   0.0000000   2.4494897  )
        24           Au  tau(  24) = (   0.5000000   0.0000000   2.4494897  )
        25           Au  tau(  25) = (   0.2500000   0.4330127   2.4494897  )
        26           Au  tau(  26) = (   0.7500000   0.4330127   2.4494897  )
        27           Au  tau(  27) = (   0.2500000   0.1443376   2.8577380  )
        28           Au  tau(  28) = (   0.7500000   0.1443376   2.8577380  )
        29           Au  tau(  29) = (   0.5000000   0.5773503   2.8577380  )
        30           Au  tau(  30) = (   1.0000000   0.5773503   2.8577380  )
        31           Au  tau(  31) = (   0.5000000   0.2886751   3.2659863  )
        32           Au  tau(  32) = (   1.0000000   0.2886751   3.2659863  )
        33           Au  tau(  33) = (   0.2500000   0.7216878   3.2659863  )
        34           Au  tau(  34) = (   0.7500000   0.7216878   3.2659863  )
        35           Au  tau(  35) = (   0.2500000   0.4330127   3.6742346  )
        36           Au  tau(  36) = (   0.7500000   0.4330127   3.6742346  )

     number of k points=    36  Marzari-Vanderbilt smearing, width (Ry)=  0.0500
                       cart. coord. in units 2pi/alat
        k(    1) = (   0.0416667   0.0481125   0.0000000), wk =   0.0555556
        k(    2) = (   0.0416667   0.1443376   0.0000000), wk =   0.0555556
        k(    3) = (   0.0416667   0.2405626   0.0000000), wk =   0.0555556
        k(    4) = (   0.0416667   0.3367877   0.0000000), wk =   0.0555556
        k(    5) = (   0.0416667   0.4330127   0.0000000), wk =   0.0555556
        k(    6) = (   0.0416667   0.5292377   0.0000000), wk =   0.0555556
        k(    7) = (   0.1250000   0.0481125   0.0000000), wk =   0.0555556
        k(    8) = (   0.1250000   0.1443376   0.0000000), wk =   0.0555556
        k(    9) = (   0.1250000   0.2405626   0.0000000), wk =   0.0555556
        k(   10) = (   0.1250000   0.3367877   0.0000000), wk =   0.0555556
        k(   11) = (   0.1250000   0.4330127   0.0000000), wk =   0.0555556
        k(   12) = (   0.1250000   0.5292377   0.0000000), wk =   0.0555556
        k(   13) = (   0.2083333   0.0481125   0.0000000), wk =   0.0555556
        k(   14) = (   0.2083333   0.1443376   0.0000000), wk =   0.0555556
        k(   15) = (   0.2083333   0.2405626   0.0000000), wk =   0.0555556
        k(   16) = (   0.2083333   0.3367877   0.0000000), wk =   0.0555556
        k(   17) = (   0.2083333   0.4330127   0.0000000), wk =   0.0555556
        k(   18) = (   0.2083333   0.5292377   0.0000000), wk =   0.0555556
        k(   19) = (   0.2916667   0.0481125   0.0000000), wk =   0.0555556
        k(   20) = (   0.2916667   0.1443376   0.0000000), wk =   0.0555556
        k(   21) = (   0.2916667   0.2405626   0.0000000), wk =   0.0555556
        k(   22) = (   0.2916667   0.3367877   0.0000000), wk =   0.0555556
        k(   23) = (   0.2916667   0.4330127   0.0000000), wk =   0.0555556
        k(   24) = (   0.2916667   0.5292377   0.0000000), wk =   0.0555556
        k(   25) = (   0.3750000   0.0481125   0.0000000), wk =   0.0555556
        k(   26) = (   0.3750000   0.1443376   0.0000000), wk =   0.0555556
        k(   27) = (   0.3750000   0.2405626   0.0000000), wk =   0.0555556
        k(   28) = (   0.3750000   0.3367877   0.0000000), wk =   0.0555556
        k(   29) = (   0.3750000   0.4330127   0.0000000), wk =   0.0555556
        k(   30) = (   0.3750000   0.5292377   0.0000000), wk =   0.0555556
        k(   31) = (   0.4583333   0.0481125   0.0000000), wk =   0.0555556
        k(   32) = (   0.4583333   0.1443376   0.0000000), wk =   0.0555556
        k(   33) = (   0.4583333   0.2405626   0.0000000), wk =   0.0555556
        k(   34) = (   0.4583333   0.3367877   0.0000000), wk =   0.0555556
        k(   35) = (   0.4583333   0.4330127   0.0000000), wk =   0.0555556
        k(   36) = (   0.4583333   0.5292377   0.0000000), wk =   0.0555556

     Dense  grid:   712611 G-vectors     FFT dimensions: (  72,  60, 360)

     Smooth grid:   220327 G-vectors     FFT dimensions: (  45,  40, 243)

     Estimated max dynamical RAM per process >      34.92 MB

     Estimated total dynamical RAM >       6.55 GB

     Initial potential from superposition of free atoms

     starting charge  395.58197, renormalised to  396.00000

     negative rho (up, down):  9.582E-01 0.000E+00
     Starting wfcs are  324 randomized atomic wfcs

     total cpu time spent up to now is       13.1 secs

     Self-consistent Calculation

     iteration #  1     ecut=    40.00 Ry     beta= 0.70
     Davidson diagonalization with overlap
     ethr =  1.00E-02,  avg # of iterations =  2.6

     Threshold (ethr) on eigenvalues was too large:
     Diagonalizing with lowered threshold

     Davidson diagonalization with overlap
     ethr =  3.35E-04,  avg # of iterations =  2.7

     negative rho (up, down):  9.101E-01 0.000E+00

     total cpu time spent up to now is       90.3 secs

     total energy              =   -3673.13660177 Ry
     estimated scf accuracy    <       1.57444209 Ry

     iteration #  2     ecut=    40.00 Ry     beta= 0.70
     Davidson diagonalization with overlap
     ethr =  3.98E-04,  avg # of iterations =  1.0

     negative rho (up, down):  9.629E-01 0.000E+00

     total cpu time spent up to now is      112.8 secs

     total energy              =   -3673.20635247 Ry
     estimated scf accuracy    <       0.70295515 Ry

     iteration #  3     ecut=    40.00 Ry     beta= 0.70
     Davidson diagonalization with overlap
     ethr =  1.78E-04,  avg # of iterations =  2.9

     negative rho (up, down):  1.015E+00 0.000E+00

     total cpu time spent up to now is      156.8 secs

     total energy              =   -3673.20198129 Ry
     estimated scf accuracy    <       0.41096155 Ry

     iteration #  4     ecut=    40.00 Ry     beta= 0.70
     Davidson diagonalization with overlap
     c_bands:  1 eigenvalues not converged
     ethr =  1.04E-04,  avg # of iterations =  5.5

     negative rho (up, down):  1.013E+00 0.000E+00

     total cpu time spent up to now is      196.7 secs

     total energy              =   -3673.19542987 Ry
     estimated scf accuracy    <       0.20237937 Ry

     iteration #  5     ecut=    40.00 Ry     beta= 0.70
     Davidson diagonalization with overlap
     c_bands:  1 eigenvalues not converged
     ethr =  5.11E-05,  avg # of iterations =  7.5

     negative rho (up, down):  9.871E-01 0.000E+00

     total cpu time spent up to now is      244.4 secs

     total energy              =   -3673.19238031 Ry
     estimated scf accuracy    <       0.12425233 Ry

     iteration #  6     ecut=    40.00 Ry     beta= 0.70
     Davidson diagonalization with overlap
     ethr =  3.14E-05,  avg # of iterations =  7.6

     negative rho (up, down):  9.884E-01 0.000E+00

     total cpu time spent up to now is      288.0 secs

     total energy              =   -3673.18884185 Ry
     estimated scf accuracy    <       0.11789274 Ry

     iteration #  7     ecut=    40.00 Ry     beta= 0.70
     Davidson diagonalization with overlap
     ethr =  2.98E-05,  avg # of iterations =  1.9

     negative rho (up, down):  9.940E-01 0.000E+00

     total cpu time spent up to now is      318.6 secs

     total energy              =   -3673.18375328 Ry
     estimated scf accuracy    <       0.12003249 Ry

     iteration #  8     ecut=    40.00 Ry     beta= 0.70
     Davidson diagonalization with overlap
     ethr =  2.98E-05,  avg # of iterations =  4.4

     negative rho (up, down):  1.008E+00 0.000E+00

     total cpu time spent up to now is      357.1 secs

     total energy              =   -3673.17771488 Ry
     estimated scf accuracy    <       0.06867454 Ry

     iteration #  9     ecut=    40.00 Ry     beta= 0.70
     Davidson diagonalization with overlap
     ethr =  1.73E-05,  avg # of iterations = 10.7

     negative rho (up, down):  1.004E+00 0.000E+00

     total cpu time spent up to now is      413.1 secs

     total energy              =   -3673.18521860 Ry
     estimated scf accuracy    <       0.08684359 Ry

     iteration # 10     ecut=    40.00 Ry     beta= 0.70
     Davidson diagonalization with overlap
     ethr =  1.73E-05,  avg # of iterations =  1.0

     negative rho (up, down):  1.022E+00 0.000E+00

     total cpu time spent up to now is      435.3 secs

     total energy              =   -3673.18112146 Ry
     estimated scf accuracy    <       0.05396640 Ry

     iteration # 11     ecut=    40.00 Ry     beta= 0.70
     Davidson diagonalization with overlap
     ethr =  1.36E-05,  avg # of iterations =  1.5

     negative rho (up, down):  1.024E+00 0.000E+00

     total cpu time spent up to now is      464.2 secs

     total energy              =   -3673.18336808 Ry
     estimated scf accuracy    <       0.03246000 Ry

     iteration # 12     ecut=    40.00 Ry     beta= 0.70
     Davidson diagonalization with overlap
     ethr =  8.20E-06,  avg # of iterations =  3.1

     negative rho (up, down):  1.034E+00 0.000E+00

     total cpu time spent up to now is      501.5 secs

     total energy              =   -3673.17654237 Ry
     estimated scf accuracy    <       0.04740700 Ry

     iteration # 13     ecut=    40.00 Ry     beta= 0.70
     Davidson diagonalization with overlap
     ethr =  8.20E-06,  avg # of iterations =  8.9

     negative rho (up, down):  1.012E+00 0.000E+00

     total cpu time spent up to now is      550.5 secs

     total energy              =   -3673.17776589 Ry
     estimated scf accuracy    <       0.00492747 Ry

     iteration # 14     ecut=    40.00 Ry     beta= 0.70
     Davidson diagonalization with overlap
     ethr =  1.24E-06,  avg # of iterations =  9.2

     negative rho (up, down):  1.003E+00 0.000E+00

     total cpu time spent up to now is      613.4 secs

     total energy              =   -3673.17881240 Ry
     estimated scf accuracy    <       0.01269671 Ry

     iteration # 15     ecut=    40.00 Ry     beta= 0.70
     Davidson diagonalization with overlap
     ethr =  1.24E-06,  avg # of iterations =  2.6

     negative rho (up, down):  9.912E-01 0.000E+00

     total cpu time spent up to now is      649.9 secs

     total energy              =   -3673.17784891 Ry
     estimated scf accuracy    <       0.00591004 Ry

     iteration # 16     ecut=    40.00 Ry     beta= 0.70
     Davidson diagonalization with overlap
     c_bands:  1 eigenvalues not converged
     ethr =  1.24E-06,  avg # of iterations =  8.1

     negative rho (up, down):  9.843E-01 0.000E+00

     total cpu time spent up to now is      699.4 secs

     total energy              =   -3673.17830059 Ry
     estimated scf accuracy    <       0.00022937 Ry

     iteration # 17     ecut=    40.00 Ry     beta= 0.70
     Davidson diagonalization with overlap
     c_bands:  1 eigenvalues not converged
     ethr =  5.79E-08,  avg # of iterations =  7.3

     negative rho (up, down):  9.799E-01 0.000E+00

     total cpu time spent up to now is      757.0 secs

     total energy              =   -3673.17831098 Ry
     estimated scf accuracy    <       0.00003114 Ry

     iteration # 18     ecut=    40.00 Ry     beta= 0.70
     Davidson diagonalization with overlap
     ethr =  7.86E-09,  avg # of iterations =  8.9

     negative rho (up, down):  9.788E-01 0.000E+00

     total cpu time spent up to now is      806.5 secs

     total energy              =   -3673.17833565 Ry
     estimated scf accuracy    <       0.00000848 Ry

     iteration # 19     ecut=    40.00 Ry     beta= 0.70
     Davidson diagonalization with overlap
     ethr =  2.14E-09,  avg # of iterations =  4.0

     negative rho (up, down):  9.786E-01 0.000E+00

     total cpu time spent up to now is      947.7 secs

     End of self-consistent calculation

          k = 0.0417 0.0481 0.0000 ( 27553 PWs)   bands (ev):

    -0.8130  -0.4712   0.0254   0.6014   1.1250   1.4433   1.5650   1.5684
     1.6143   1.8506   1.8642   2.0338   2.1254   2.1636   2.2293   2.2806
     2.3230   2.3502   2.3810   2.3915   2.4408   2.4759   2.4837   2.5152
     2.5463   2.5802   2.6416   2.6673   2.7237   2.7591   2.7907   2.8247
     2.8574   2.9404   2.9794   3.0562   3.0816   3.1172   3.1761   3.1947
     3.2140   3.2337   3.2615   3.3218   3.3319   3.3441   3.3607   3.3758
     3.4825   3.5091   3.5480   3.5629   3.5671   3.5869   3.6076   3.6908
     3.7320   3.7327   3.7657   3.7743   3.7941   3.8282   3.8526   3.8936
     3.8952   3.9021   3.9074   3.9193   3.9346   3.9389   3.9550   3.9610
     3.9636   3.9879   3.9941   4.0119   4.0426   4.0733   4.0802   4.0954
     4.0993   4.1179   4.1400   4.1646   4.1655   4.1744   4.1755   4.2067
     4.3004   4.3059   4.3146   4.3185   4.3330   4.3481   4.3674   4.3705
     4.3829   4.3945   4.5099   4.5128   4.5189   4.5251   4.6992   4.7085
     4.7253   4.7468   4.7646   4.7728   4.8821   4.8920   4.9030   4.9914
     5.0353   5.0606   5.1116   5.1244   5.1514   5.1907   5.2013   5.2235
     5.2292   5.2363   5.2704   5.2755   5.2830   5.3190   5.3323   5.3345
     5.3404   5.3474   5.4066   5.4281   5.4316   5.4609   5.4889   5.5165
     5.5455   5.5550   5.6412   5.6479   5.6787   5.7000   5.7304   5.7908
     5.8306   5.8601   5.8974   5.9254   5.9600   5.9964   6.0132   6.0977
     6.1181   6.1338   6.1658   6.1963   6.2067   6.2198   6.2347   6.2529
     6.3037   6.3279   6.3461   6.3608   6.3716   6.3778   6.3923   6.3981
     6.3990   6.4319   6.4347   6.4386   6.4652   6.4865   6.5344   6.5460
     6.5487   6.5753   6.5959   6.5992   6.6011   6.6086   6.6334   6.6384
     6.7567   6.7607   6.9126   6.9131   7.0798   7.6698   7.7970   7.8521
     8.0477   8.2770   8.3596   8.4534   8.4655   8.7137   8.7921   8.9272
     9.0404   9.0560   9.2728   9.2777   9.2966   9.6611   9.7600   9.9043
     9.9109   9.9943  10.5295  10.6512  11.1449  11.2644  11.3376  11.3825
    11.4669  11.8213  11.8827  12.0477  12.0969  12.3381  12.6162  12.6186
    12.6452  12.7671  12.8749  13.2843  13.3837  13.4640  13.4907  13.7255
    13.8079  13.8832  13.9529  13.9952  13.9975  14.0079

          k = 0.0417 0.1443 0.0000 ( 27502 PWs)   bands (ev):

    -0.7122  -0.3720   0.1226   0.6973   1.2201   1.5337   1.6052   1.6506
     1.6610   1.8613   1.8865   2.0574   2.0992   2.1520   2.1678   2.2132
     2.2573   2.2769   2.2876   2.3123   2.3612   2.4145   2.4686   2.4947
     2.4996   2.5195   2.5878   2.6429   2.6926   2.7018   2.7022   2.7114
     2.7433   2.8196   2.8705   2.8926   2.9247   3.0052   3.0411   3.0827
     3.1303   3.1627   3.2320   3.2376   3.2683   3.3402   3.3500   3.3744
     3.5019   3.5242   3.5494   3.5561   3.5887   3.6160   3.6854   3.6859
     3.7020   3.7669   3.7707   3.7915   3.8465   3.8507   3.8648   3.9113
     3.9126   3.9279   3.9387   3.9444   3.9763   3.9821   4.0006   4.0220
     4.0252   4.0562   4.0670   4.0746   4.1083   4.1223   4.1463   4.1739
     4.1780   4.1874   4.1946   4.2220   4.2261   4.2319   4.2717   4.2827
     4.3079   4.3230   4.3491   4.3605   4.3986   4.4233   4.4239   4.4610
     4.4932   4.5053   4.5336   4.5395   4.5778   4.5986   4.6309   4.6705
     4.6893   4.7170   4.8047   4.8209   4.8960   4.9469   4.9752   4.9994
     5.0479   5.0841   5.0936   5.0984   5.1167   5.1296   5.2386   5.2517
     5.2545   5.2574   5.2796   5.3461   5.3470   5.3598   5.3710   5.4100
     5.4373   5.4542   5.4708   5.4979   5.5079   5.5267   5.5380   5.5501
     5.5815   5.6044   5.6129   5.6512   5.6712   5.7144   5.7285   5.7742
     5.7900   5.8588   5.8641   5.9140   5.9481   5.9825   5.9842   6.0200
     6.1241   6.1253   6.1467   6.1504   6.2110   6.2146   6.2236   6.2278
     6.2504   6.2757   6.3144   6.3144   6.3224   6.3343   6.3622   6.3839
     6.3895   6.3931   6.4004   6.4540   6.4583   6.4654   6.5050   6.5419
     6.5433   6.5493   6.5646   6.5974   6.5995   6.6024   6.6025   6.7175
     6.7447   6.7965   6.9109   6.9110   7.1489   7.4630   7.5677   7.6594
     7.7876   7.7931   8.0370   8.0831   8.2942   8.4393   8.4793   8.7583
     8.7941   9.0338   9.1524   9.2661   9.4276   9.7075   9.7679   9.9049
    10.5419  10.6517  10.6636  11.0145  11.2606  11.3007  11.3797  11.6091
    11.6930  11.7723  11.8435  12.0152  12.0882  12.2303  12.2955  12.4477
    12.5529  12.7281  12.8146  12.9187  12.9507  13.1168  13.2777  13.4309
    13.4392  13.6183  13.6489  13.7157  13.8985  14.0427

          k = 0.0417 0.2406 0.0000 ( 27513 PWs)   bands (ev):

    -0.5140  -0.1778   0.3117   0.8821   1.4018   1.5834   1.7090   1.8040
     1.8168   1.8557   1.9102   1.9475   2.0095   2.0845   2.1273   2.1442
     2.1466   2.1616   2.2418   2.2477   2.3028   2.3383   2.3702   2.4365
     2.4397   2.4515   2.4744   2.5358   2.5380   2.5682   2.5945   2.5987
     2.6171   2.6638   2.7718   2.7725   2.8061   2.8490   2.8755   2.9229
     2.9565   3.1332   3.1631   3.1812   3.2794   3.3278   3.3540   3.3779
     3.5320   3.5437   3.5538   3.5936   3.6247   3.6298   3.6924   3.7202
     3.7350   3.7437   3.7592   3.7853   3.8268   3.8572   3.8683   3.9197
     3.9234   3.9488   3.9800   4.0164   4.0193   4.0535   4.0697   4.0709
     4.1022   4.1097   4.1198   4.1394   4.1500   4.1833   4.1937   4.2022
     4.2051   4.2183   4.2370   4.2544   4.3006   4.3062   4.3148   4.3395
     4.3506   4.3692   4.3996   4.4255   4.4667   4.4855   4.4907   4.4992
     4.5356   4.5361   4.5789   4.5864   4.7256   4.7308   4.7853   4.8103
     4.8177   4.8261   4.8497   4.8595   4.9067   5.0022   5.0167   5.0249
     5.0342   5.0374   5.1095   5.1225   5.1804   5.2000   5.2311   5.2504
     5.2741   5.2769   5.2972   5.3644   5.3673   5.3763   5.3768   5.4092
     5.4870   5.5335   5.5426   5.5471   5.5778   5.6203   5.6322   5.6407
     5.6746   5.7079   5.7308   5.7334   5.7669   5.7780   5.8002   5.8290
     5.8342   5.8439   5.8571   5.9036   5.9910   6.0096   6.0441   6.0537
     6.0719   6.0774   6.0908   6.1246   6.1530   6.1687   6.1842   6.1996
     6.2058   6.2257   6.2260   6.2353   6.2659   6.2731   6.2791   6.2827
     6.3072   6.3589   6.3702   6.3774   6.4187   6.4454   6.4497   6.4743
     6.5162   6.5468   6.5485   6.5857   6.5923   6.5992   6.5997   6.6627
     6.7249   6.7397   6.8159   6.9057   6.9064   6.9118   7.0668   7.4071
     7.6392   7.8003   7.8662   8.0290   8.1973   8.3293   8.4200   8.5164
     8.8061   9.0220   9.1286   9.2505   9.3120   9.7010   9.7805   9.8688
    10.2501  10.5447  10.6436  11.0498  11.2183  11.2741  11.3420  11.4438
    11.6621  11.8062  11.9858  12.0117  12.1029  12.1263  12.3036  12.3201
    12.5247  12.5924  12.6536  12.7651  12.8142  12.9349  13.0597  13.0963
    13.1680  13.4464  13.5253  13.6623  13.8265  14.0972

          k = 0.0417 0.3368 0.0000 ( 27517 PWs)   bands (ev):

    -0.2263   0.1021   0.5802   1.1388   1.5057   1.6432   1.7517   1.7547
     1.8300   1.9392   1.9730   1.9999   2.0104   2.0134   2.0284   2.0428
     2.0659   2.0743   2.1689   2.1963   2.2341   2.2734   2.2886   2.3081
     2.3438   2.3808   2.3833   2.4081   2.4495   2.4563   2.4767   2.5535
     2.5906   2.6140   2.6591   2.6731   2.6933   2.7013   2.7856   2.8069
     2.8759   3.1222   3.1401   3.1993   3.2744   3.3128   3.3792   3.4050
     3.4214   3.5151   3.5763   3.5856   3.5909   3.6264   3.6447   3.6978
     3.7045   3.7595   3.7715   3.7878   3.8468   3.8556   3.8678   3.9410
     3.9530   3.9710   3.9759   4.0155   4.0419   4.0580   4.0764   4.0790
     4.1318   4.1412   4.1548   4.1625   4.1695   4.1871   4.2004   4.2560
     4.2740   4.2745   4.2887   4.2968   4.3225   4.3537   4.3689   4.3710
     4.3816   4.3938   4.4713   4.4783   4.4956   4.5051   4.5343   4.5560
     4.5745   4.6621   4.6805   4.6919   4.7145   4.7190   4.8014   4.8151
     4.8241   4.8717   4.9011   4.9253   4.9586   4.9712   4.9820   5.0066
     5.0845   5.0948   5.1294   5.1734   5.2250   5.2391   5.2410   5.2592
     5.2860   5.3266   5.3372   5.3444   5.3732   5.3877   5.4029   5.4035
     5.4730   5.5372   5.5822   5.5992   5.6076   5.6681   5.6967   5.7312
     5.7484   5.7699   5.8374   5.8539   5.8543   5.8574   5.9006   5.9108
     5.9491   5.9495   5.9588   5.9689   6.0132   6.0143   6.0278   6.0361
     6.0479   6.0574   6.0736   6.0767   6.0912   6.1010   6.1302   6.1451
     6.1764   6.1928   6.2095   6.2484   6.2577   6.2636   6.2648   6.2674
     6.2913   6.2932   6.3173   6.3339   6.3363   6.3498   6.3649   6.3779
     6.4244   6.4252   6.4425   6.5474   6.5509   6.5849   6.5898   6.6021
     6.6043   6.7170   6.7285   6.8259   6.8954   6.8965   6.8974   7.4968
     7.6143   7.7173   7.8510   8.0664   8.2648   8.3614   8.4215   8.5961
     8.6836   8.8540   9.0092   9.2263   9.3897   9.7304   9.7558   9.7878
    10.0743  10.2529  10.4663  10.5920  10.7565  10.7871  11.1350  11.1945
    11.2268  11.3898  11.4826  11.6597  11.7792  11.8568  12.1129  12.2550
    12.3471  12.4092  12.6221  12.7048  12.8498  13.1859  13.2841  13.4593
    13.4633  13.6557  13.6884  13.8962  13.9557  14.1119

          k = 0.0417 0.4330 0.0000 ( 27525 PWs)   bands (ev):

     0.1366   0.4501   0.9045   1.3072   1.4288   1.5450   1.6497   1.6965
     1.7919   1.8973   1.9034   1.9191   1.9250   1.9444   2.0365   2.0854
     2.1140   2.1708   2.1736   2.1759   2.1996   2.2057   2.2504   2.2863
     2.2884   2.3237   2.3385   2.3594   2.3626   2.4228   2.4860   2.5087
     2.5181   2.5548   2.5682   2.6489   2.6955   2.7050   2.7232   2.8036
     3.0105   3.0889   3.1044   3.1416   3.2488   3.2916   3.3540   3.4097
     3.4395   3.4520   3.4837   3.5155   3.5843   3.6151   3.6200   3.6486
     3.6780   3.7082   3.7496   3.7650   3.7864   3.8923   3.9038   3.9096
     3.9451   3.9480   3.9655   3.9777   4.0220   4.0630   4.0736   4.0850
     4.1157   4.1397   4.1479   4.1813   4.1915   4.1975   4.2187   4.2237
     4.2687   4.3034   4.3272   4.3446   4.3507   4.3784   4.4045   4.4190
     4.4321   4.4576   4.4624   4.4934   4.5489   4.5570   4.5802   4.5838
     4.5906   4.6126   4.6647   4.7064   4.7478   4.7952   4.8264   4.8333
     4.8598   4.8664   4.9185   4.9266   4.9465   4.9664   4.9819   4.9850
     5.0121   5.0273   5.0521   5.1356   5.1719   5.1826   5.2016   5.2201
     5.3214   5.3469   5.3783   5.3929   5.3969   5.4289   5.4491   5.4806
     5.4942   5.5095   5.5536   5.5748   5.5794   5.5887   5.6071   5.6433
     5.6678   5.7295   5.7676   5.7915   5.7997   5.8345   5.8780   5.8976
     5.9035   5.9071   5.9434   5.9723   6.0237   6.0299   6.0379   6.0595
     6.1092   6.1184   6.1271   6.1564   6.1593   6.1742   6.1938   6.2345
     6.2362   6.2540   6.2716   6.2757   6.2938   6.3005   6.3010   6.3211
     6.3273   6.3573   6.3664   6.3761   6.3908   6.4266   6.4355   6.4494
     6.4642   6.4810   6.4874   6.5642   6.5679   6.5870   6.5886   6.6268
     6.6273   6.7185   6.7254   6.8302   6.8748   6.8776   6.9662   7.4847
     7.6162   7.7838   7.9867   8.2065   8.2357   8.2998   8.5083   8.6561
     8.6806   8.9603   9.0369   9.1737   9.2184   9.4831   9.7080   9.7106
     9.7774   9.9557  10.0862  10.2304  10.3586  10.6335  10.6519  10.9776
    11.0276  11.1342  11.2093  11.3341  11.4415  11.5263  11.8431  12.0926
    12.0992  12.4250  12.5343  12.5788  12.6669  13.0059  13.3226  13.4002
    13.5426  13.6329  13.7995  14.0116  14.0990  14.2506

          k = 0.0417 0.5292 0.0000 ( 27573 PWs)   bands (ev):

     0.5491   0.8363   0.9649   1.2160   1.2463   1.5573   1.6035   1.6194
     1.7228   1.8476   1.8522   1.8546   1.8684   1.9218   2.0304   2.0407
     2.1220   2.1227   2.1516   2.1520   2.1715   2.2258   2.2382   2.2442
     2.3148   2.3181   2.3337   2.4115   2.4166   2.4301   2.4887   2.4954
     2.5246   2.6022   2.6235   2.6689   2.6847   2.7341   2.7690   2.9326
     2.9613   3.0695   3.0835   3.1480   3.1696   3.2911   3.3246   3.3695
     3.4219   3.4496   3.4594   3.4757   3.5121   3.6020   3.6212   3.6470
     3.6482   3.6595   3.6847   3.7790   3.7922   3.8015   3.8650   3.8698
     3.8698   3.9261   3.9495   3.9553   3.9802   4.0262   4.0869   4.1080
     4.1102   4.1338   4.1657   4.1832   4.1889   4.1907   4.2008   4.2186
     4.2378   4.2550   4.3219   4.3579   4.3808   4.4297   4.4315   4.4336
     4.4526   4.4661   4.4687   4.4917   4.5282   4.5336   4.5363   4.5974
     4.6326   4.6593   4.6928   4.7184   4.7516   4.8138   4.8721   4.8811
     4.8963   4.8991   4.9300   4.9597   4.9751   4.9811   4.9991   5.0119
     5.0295   5.0308   5.0822   5.1088   5.1281   5.1541   5.2161   5.2317
     5.2606   5.2615   5.2662   5.2963   5.3271   5.3512   5.3544   5.3752
     5.4200   5.4792   5.4962   5.5164   5.5400   5.5511   5.5726   5.6063
     5.6111   5.6972   5.7483   5.7567   5.7623   5.8117   5.8487   5.8655
     5.8930   5.9061   5.9771   5.9781   5.9955   6.0741   6.0946   6.1171
     6.1430   6.1751   6.1794   6.2015   6.2315   6.2340   6.2599   6.2671
     6.2938   6.3138   6.3362   6.3460   6.3477   6.3762   6.3788   6.3905
     6.3926   6.3958   6.4287   6.4325   6.4517   6.4562   6.4678   6.5118
     6.5127   6.5646   6.5714   6.5875   6.5881   6.6527   6.6706   6.6970
     6.6976   6.7193   6.7249   6.8339   6.8531   6.8764   6.9558   7.5267
     7.7395   7.7988   8.0375   8.1462   8.2410   8.5507   8.5855   8.7752
     8.7833   8.9469   8.9508   9.1042   9.1965   9.3531   9.4610   9.5885
     9.6442   9.7176   9.8305   9.9362   9.9979  10.0744  10.8571  10.8659
    10.9820  11.0639  11.0767  11.2294  11.2592  11.3281  11.7285  11.9531
    12.0585  12.3790  12.4490  12.5511  12.6092  12.8468  13.2443  13.3197
    13.6762  13.6785  13.8227  13.9530  13.9788  14.3483

          k = 0.1250 0.0481 0.0000 ( 27526 PWs)   bands (ev):

    -0.7373  -0.3966   0.0988   0.6742   1.1978   1.5128   1.6297   1.6348
     1.6768   1.9017   1.9259   2.0925   2.1250   2.1651   2.2301   2.2415
     2.2835   2.2968   2.3563   2.4142   2.4403   2.4724   2.5418   2.5508
     2.5817   2.6333   2.6410   2.6938   2.7517   2.7897   2.8323   2.8638
     2.9155   2.9236   3.0343   3.0607   3.0746   3.1540   3.1787   3.1960
     3.2221   3.2578   3.2960   3.2994   3.3325   3.3383   3.3721   3.3886
     3.4134   3.4855   3.5313   3.5527   3.5679   3.6023   3.6292   3.6970
     3.7176   3.7215   3.7228   3.7296   3.8087   3.8157   3.8414   3.8589
     3.8755   3.8837   3.8984   3.9143   3.9351   3.9545   3.9662   3.9766
     3.9818   3.9839   3.9897   4.0325   4.0583   4.0636   4.0747   4.0922
     4.1018   4.1140   4.1647   4.1684   4.1815   4.1892   4.1916   4.2079
     4.2223   4.2368   4.2927   4.3041   4.3122   4.3597   4.3653   4.3838
     4.3942   4.4135   4.4439   4.4980   4.5231   4.5525   4.6508   4.6739
     4.6755   4.7465   4.7707   4.8269   4.8743   4.9330   4.9343   4.9401
     4.9472   5.0631   5.0668   5.1001   5.1215   5.1345   5.1396   5.1515
     5.2109   5.2259   5.2500   5.2603   5.2670   5.3246   5.3274   5.3415
     5.3537   5.3621   5.3642   5.4062   5.4526   5.5064   5.5087   5.5255
     5.5508   5.5734   5.5810   5.5987   5.6383   5.7035   5.7297   5.7566
     5.8007   5.8472   5.8644   5.8696   5.8805   5.9531   5.9700   6.0321
     6.0793   6.0964   6.1337   6.1829   6.1833   6.2068   6.2209   6.2228
     6.2690   6.2868   6.2955   6.3087   6.3149   6.3452   6.3466   6.3561
     6.3677   6.3733   6.3754   6.3951   6.4472   6.4795   6.4813   6.4836
     6.5082   6.5285   6.5378   6.5453   6.5463   6.5769   6.6054   6.6687
     6.7015   6.7884   6.8423   6.8440   7.1244   7.2039   7.3954   7.3983
     7.7220   8.1390   8.2658   8.5428   8.8448   8.9423   8.9857   9.0977
     9.1663   9.1958   9.4414   9.4738   9.5982   9.7591   9.8113  10.0291
    10.1406  10.1419  10.5046  10.7970  11.1635  11.2338  11.3927  11.4103
    11.5352  11.7031  11.9239  11.9537  12.0719  12.0838  12.1802  12.5528
    12.6982  12.7426  12.8245  12.9775  13.2618  13.5806  13.5985  13.7969
    13.8116  13.9973  14.0456  14.1656  14.2973  14.3417

          k = 0.1250 0.1443 0.0000 ( 27539 PWs)   bands (ev):

    -0.6373  -0.2984   0.1948   0.7686   1.2911   1.6013   1.6683   1.7140
     1.7257   1.9240   1.9384   1.9571   2.1162   2.1647   2.2065   2.2217
     2.2607   2.3212   2.3217   2.3234   2.3771   2.3946   2.4787   2.5097
     2.5415   2.5645   2.5866   2.6155   2.6829   2.7270   2.7618   2.7713
     2.7845   2.8147   2.8739   2.9333   2.9685   3.0290   3.0985   3.1024
     3.1243   3.1932   3.2459   3.2699   3.2995   3.3420   3.3815   3.4149
     3.4608   3.4952   3.5255   3.5369   3.5492   3.6389   3.6479   3.6633
     3.7345   3.7508   3.7994   3.8052   3.8126   3.8246   3.8487   3.8728
     3.8777   3.9145   3.9179   3.9486   3.9813   3.9947   4.0119   4.0284
     4.0293   4.0428   4.0446   4.0816   4.1099   4.1223   4.1504   4.1661
     4.1692   4.1913   4.2029   4.2084   4.2285   4.2542   4.2785   4.2839
     4.2996   4.3004   4.3358   4.3457   4.3769   4.4101   4.4247   4.4416
     4.4696   4.5056   4.5550   4.5662   4.5810   4.5835   4.5967   4.6252
     4.6418   4.6964   4.8032   4.8192   4.8764   4.9119   4.9255   4.9715
     4.9755   5.0440   5.0699   5.0771   5.0934   5.1010   5.2104   5.2368
     5.2451   5.2518   5.2904   5.2969   5.3094   5.3344   5.3645   5.3700
     5.3755   5.4066   5.4448   5.4629   5.4637   5.4914   5.5317   5.5373
     5.5756   5.5952   5.6160   5.6420   5.6440   5.6863   5.7091   5.7303
     5.7919   5.8194   5.8264   5.8960   5.9138   5.9402   6.0110   6.0296
     6.0559   6.1052   6.1197   6.1522   6.1548   6.1741   6.1890   6.1991
     6.2200   6.2426   6.2476   6.2587   6.2647   6.2960   6.3295   6.3472
     6.3474   6.3588   6.3882   6.3901   6.4012   6.4667   6.4740   6.4740
     6.4821   6.5313   6.5370   6.5407   6.5463   6.5596   6.5878   6.6678
     6.7148   6.8404   6.8411   6.9642   7.0947   7.1915   7.3759   7.4281
     7.6599   7.7034   7.7552   7.9649   8.2565   8.3176   8.9663   8.9804
     9.0037   9.2329   9.2602   9.5720   9.6172   9.7779   9.8867  10.1476
    10.5117  10.7995  10.8091  11.0015  11.0534  11.2010  11.3368  11.3812
    11.5397  11.6727  11.8382  11.8471  11.9863  12.1283  12.2966  12.3099
    12.4714  12.8711  12.9857  12.9978  13.0881  13.4960  13.5798  13.6138
    13.6344  13.6818  13.9059  14.0576  14.0957  14.2283

          k = 0.1250 0.2406 0.0000 ( 27521 PWs)   bands (ev):

    -0.4406  -0.1060   0.3815   0.9505   1.4699   1.6490   1.7731   1.7997
     1.8669   1.8783   1.9189   2.0014   2.0358   2.1109   2.1459   2.1482
     2.1913   2.1931   2.2860   2.2890   2.3279   2.3414   2.3624   2.4179
     2.4338   2.4735   2.5109   2.5377   2.5973   2.6016   2.6485   2.6627
     2.6757   2.7099   2.7507   2.7935   2.8313   2.8787   2.9007   2.9846
     3.0231   3.1447   3.1694   3.2239   3.3061   3.3295   3.3598   3.4117
     3.4783   3.5042   3.5342   3.5626   3.5924   3.5983   3.7060   3.7155
     3.7246   3.7468   3.7593   3.7957   3.8030   3.8288   3.8392   3.8922
     3.9344   3.9628   3.9808   3.9979   4.0099   4.0303   4.0641   4.0781
     4.0963   4.1054   4.1322   4.1376   4.1529   4.1693   4.1986   4.2086
     4.2286   4.2347   4.2506   4.2698   4.2935   4.3026   4.3298   4.3331
     4.3543   4.3624   4.3880   4.4040   4.4320   4.4595   4.5039   4.5242
     4.5409   4.5423   4.5830   4.6192   4.6622   4.7085   4.7145   4.7276
     4.7639   4.7863   4.8185   4.8404   4.9106   4.9678   4.9681   5.0133
     5.0189   5.0347   5.0714   5.0942   5.1000   5.1254   5.1486   5.1946
     5.2265   5.2609   5.2809   5.3280   5.3349   5.3563   5.3720   5.4068
     5.4193   5.4638   5.4970   5.5195   5.5435   5.5798   5.5871   5.5939
     5.6079   5.6223   5.6795   5.6939   5.6974   5.7413   5.7629   5.8069
     5.8186   5.8262   5.9081   5.9378   5.9544   5.9587   5.9701   6.0127
     6.0186   6.0289   6.0884   6.1031   6.1346   6.1472   6.1560   6.1673
     6.1800   6.1869   6.2100   6.2190   6.2200   6.2427   6.2559   6.2774
     6.2889   6.3210   6.3424   6.3856   6.4199   6.4234   6.4530   6.4813
     6.4922   6.5115   6.5318   6.5399   6.5406   6.5497   6.6149   6.6675
     6.7673   6.8331   6.8357   6.8426   7.0300   7.0386   7.1256   7.1763
     7.2758   7.3471   7.5887   7.6746   8.0189   8.2466   8.3646   9.0043
     9.0949   9.2666   9.3014   9.4092   9.6380   9.7990   9.8458  10.0797
    10.3041  10.3670  10.5123  10.5825  10.8616  11.0971  11.2953  11.3707
    11.5077  11.7682  12.0033  12.0776  12.1580  12.2228  12.3316  12.5628
    12.7156  12.8587  12.8675  13.0086  13.0743  13.1240  13.2670  13.3371
    13.3808  13.5602  13.8521  13.9068  14.1444  14.2505

          k = 0.1250 0.3368 0.0000 ( 27501 PWs)   bands (ev):

    -0.1549   0.1715   0.6469   1.2038   1.5749   1.6799   1.7086   1.8192
     1.9138   1.9255   2.0012   2.0128   2.0350   2.0689   2.0732   2.1040
     2.1239   2.1539   2.1708   2.2157   2.2288   2.2884   2.2921   2.3456
     2.3731   2.3889   2.4278   2.4592   2.4816   2.5061   2.5473   2.5897
     2.5898   2.6479   2.6633   2.7333   2.7532   2.7624   2.8119   2.8661
     2.8938   3.1231   3.1761   3.2073   3.2935   3.3245   3.3859   3.3859
     3.4473   3.4624   3.5241   3.5614   3.5891   3.6086   3.6497   3.6546
     3.6589   3.7371   3.7662   3.8273   3.8382   3.8569   3.8702   3.9001
     3.9186   3.9450   3.9833   4.0104   4.0307   4.0359   4.0665   4.0811
     4.1010   4.1109   4.1301   4.1502   4.1826   4.2055   4.2085   4.2300
     4.2668   4.2919   4.2939   4.2994   4.3217   4.3229   4.3573   4.3765
     4.3936   4.3965   4.4341   4.4649   4.4953   4.5338   4.5557   4.5561
     4.6098   4.6273   4.6655   4.6927   4.7014   4.7244   4.7484   4.7676
     4.7894   4.7961   4.8489   4.9331   4.9425   4.9570   4.9629   5.0072
     5.0592   5.0700   5.0774   5.1292   5.1432   5.1552   5.1833   5.1843
     5.2301   5.2722   5.2973   5.3217   5.3480   5.3610   5.4003   5.4377
     5.4564   5.4987   5.5268   5.5334   5.5432   5.6303   5.6356   5.6756
     5.7012   5.7258   5.7563   5.7680   5.7927   5.7962   5.8729   5.8764
     5.9011   5.9080   5.9525   5.9552   5.9804   5.9886   6.0004   6.0316
     6.0323   6.0630   6.0724   6.1040   6.1207   6.1215   6.1472   6.1480
     6.1644   6.1747   6.1841   6.2325   6.2325   6.2478   6.2598   6.2811
     6.2922   6.3261   6.3379   6.3577   6.3809   6.3878   6.3912   6.4346
     6.4422   6.4813   6.5105   6.5152   6.5188   6.5492   6.5573   6.5639
     6.5812   6.6647   6.7074   6.8184   6.8232   6.9228   6.9712   7.0594
     7.1871   7.3457   7.5600   7.6640   7.8644   8.2605   8.3483   8.8023
     9.0302   9.1234   9.3083   9.4699   9.4731   9.6382   9.7735   9.8570
     9.9281  10.1339  10.2082  10.3903  10.5469  10.7552  10.8782  11.1787
    11.2674  11.6902  11.7292  11.9388  12.1099  12.2484  12.2802  12.3196
    12.4729  12.4820  12.7315  13.0058  13.2140  13.2430  13.5341  13.5407
    13.6859  13.7468  13.8814  14.0022  14.2538  14.3092

          k = 0.1250 0.4330 0.0000 ( 27522 PWs)   bands (ev):

     0.2061   0.5171   0.9683   1.3785   1.4916   1.6107   1.6116   1.7566
     1.8527   1.8594   1.9155   1.9643   1.9895   2.0035   2.0802   2.0953
     2.1473   2.1686   2.1981   2.2215   2.2393   2.2716   2.2762   2.3135
     2.3505   2.3859   2.3883   2.3930   2.3985   2.4794   2.4842   2.5328
     2.5527   2.6065   2.6238   2.7090   2.7140   2.7375   2.7672   2.8643
     3.0244   3.0910   3.1366   3.1503   3.2608   3.2987   3.3489   3.4095
     3.4221   3.4548   3.4688   3.4799   3.5528   3.5877   3.5906   3.6268
     3.6771   3.6911   3.7236   3.7374   3.8343   3.8367   3.8915   3.8966
     3.9165   3.9224   3.9323   3.9663   3.9920   4.0408   4.0457   4.0592
     4.0714   4.1073   4.1216   4.1512   4.1612   4.1935   4.2120   4.2130
     4.2432   4.2485   4.2913   4.3219   4.3469   4.3763   4.3830   4.3853
     4.4078   4.4466   4.4613   4.5160   4.5326   4.5452   4.5524   4.5566
     4.6097   4.6448   4.6708   4.7052   4.7698   4.7799   4.7990   4.8441
     4.8509   4.8797   4.8861   4.9074   4.9076   4.9484   4.9551   4.9714
     4.9784   5.0303   5.0733   5.1180   5.1603   5.1611   5.1930   5.2148
     5.2813   5.3286   5.3456   5.3613   5.3879   5.3882   5.4297   5.4532
     5.4855   5.4946   5.4974   5.5373   5.5491   5.5740   5.6434   5.6787
     5.7087   5.7420   5.7494   5.7689   5.8406   5.8546   5.8626   5.9022
     5.9147   5.9581   5.9705   5.9797   6.0273   6.0637   6.0663   6.0720
     6.0871   6.0907   6.1144   6.1341   6.1610   6.1951   6.2016   6.2024
     6.2083   6.2181   6.2287   6.2498   6.2575   6.2685   6.2732   6.2878
     6.2886   6.3146   6.3391   6.3550   6.3710   6.3754   6.3802   6.3969
     6.4317   6.4548   6.4734   6.5069   6.5383   6.5451   6.5510   6.5801
     6.6145   6.6571   6.6835   6.7912   6.7986   6.9105   6.9559   7.0724
     7.2983   7.4843   7.5299   7.7589   7.8872   8.2719   8.3490   8.5146
     8.7451   8.8107   9.0601   9.1494   9.2552   9.3438   9.6503   9.7893
     9.8021   9.9663  10.2437  10.3087  10.3248  10.7339  10.7661  11.1195
    11.2893  11.4399  11.5534  11.6101  11.6596  11.7685  12.0659  12.1630
    12.2721  12.4868  12.5139  12.7129  12.8817  13.2909  13.4079  13.5278
    13.6006  13.8496  14.0028  14.1597  14.2007  14.6739

          k = 0.1250 0.5292 0.0000 ( 27553 PWs)   bands (ev):

     0.6177   0.9017   1.0347   1.2810   1.3081   1.6011   1.6172   1.6503
     1.7828   1.8490   1.8749   1.8936   1.8997   1.9816   2.0480   2.0793
     2.1391   2.1539   2.1633   2.2024   2.2211   2.2444   2.2811   2.3110
     2.3426   2.3518   2.4042   2.4361   2.4700   2.4803   2.5226   2.5389
     2.5908   2.6632   2.6765   2.6786   2.7240   2.7860   2.8261   2.9483
     2.9914   3.0732   3.1141   3.1628   3.1773   3.2991   3.3291   3.3597
     3.3902   3.4376   3.4377   3.4694   3.4704   3.5593   3.5649   3.6091
     3.6244   3.6442   3.6738   3.7351   3.7745   3.7778   3.8179   3.8599
     3.8801   3.8955   3.9332   3.9558   3.9575   3.9724   4.0188   4.0728
     4.0827   4.0990   4.1098   4.1380   4.1782   4.1845   4.1938   4.2004
     4.2288   4.2463   4.2520   4.3212   4.3306   4.3674   4.3687   4.4063
     4.4267   4.4378   4.4620   4.4826   4.5011   4.5179   4.5426   4.5430
     4.5697   4.6478   4.7124   4.7718   4.8046   4.8438   4.8545   4.8808
     4.8937   4.9179   4.9192   4.9459   4.9517   4.9818   5.0069   5.0115
     5.0164   5.0434   5.0929   5.1392   5.1547   5.1930   5.2273   5.2330
     5.2588   5.2865   5.3120   5.3123   5.3358   5.3692   5.4011   5.4323
     5.4707   5.4780   5.5010   5.5692   5.5726   5.5984   5.6419   5.6503
     5.6609   5.6852   5.6917   5.7598   5.7780   5.7906   5.7992   5.8398
     5.8739   5.9237   5.9371   6.0304   6.0450   6.0554   6.0760   6.0889
     6.0985   6.1211   6.1315   6.1566   6.1653   6.2246   6.2349   6.2379
     6.2487   6.2580   6.2774   6.2824   6.2921   6.3122   6.3270   6.3367
     6.3500   6.3642   6.3821   6.3938   6.4012   6.4101   6.4200   6.4472
     6.4823   6.5085   6.5349   6.5398   6.5508   6.5945   6.6250   6.6539
     6.6559   6.6614   6.6791   6.7485   6.7858   6.9538   7.0461   7.1993
     7.5527   7.6292   7.7926   7.8826   7.9082   8.1020   8.1864   8.1909
     8.4425   8.5574   8.7581   8.8611   9.0162   9.1030   9.3705   9.8567
     9.9073  10.0777  10.1010  10.3275  10.5030  10.7768  10.9418  11.0388
    11.0894  11.2416  11.3479  11.3507  11.4693  11.5750  11.9608  12.1052
    12.1413  12.4415  12.4882  12.6182  12.8208  13.0319  13.3352  13.4286
    13.6311  13.7180  13.9579  14.0443  14.0630  14.4031

          k = 0.2083 0.0481 0.0000 ( 27525 PWs)   bands (ev):

    -0.5876  -0.2496   0.2427   0.8163   1.3393   1.6469   1.7556   1.7633
     1.7975   1.8382   1.9730   1.9923   2.0436   2.1387   2.1987   2.2512
     2.3433   2.3554   2.4224   2.4308   2.4985   2.5683   2.5826   2.6600
     2.6792   2.7041   2.7049   2.7573   2.7855   2.8081   2.8791   2.9154
     2.9434   2.9596   3.0503   3.1029   3.1075   3.1522   3.1761   3.1941
     3.2304   3.2800   3.2947   3.3108   3.3160   3.3306   3.3375   3.4120
     3.4489   3.4696   3.4920   3.5190   3.5548   3.5577   3.6148   3.6488
     3.6569   3.6681   3.6801   3.7575   3.7582   3.7859   3.7902   3.8406
     3.8605   3.8664   3.8918   3.8983   3.9540   3.9569   3.9691   3.9692
     3.9963   4.0049   4.0288   4.0464   4.0477   4.0588   4.0754   4.1147
     4.1393   4.1420   4.1499   4.1503   4.1723   4.1759   4.1832   4.1910
     4.2537   4.2613   4.2635   4.2951   4.3094   4.3242   4.3853   4.3900
     4.4034   4.4616   4.4712   4.4816   4.4941   4.5500   4.5981   4.6151
     4.6167   4.7273   4.7722   4.8305   4.8532   4.8767   4.8891   4.9104
     4.9776   4.9899   5.0122   5.0543   5.0720   5.0853   5.0946   5.1429
     5.1878   5.1885   5.2128   5.2230   5.2446   5.2593   5.2679   5.3251
     5.3352   5.3524   5.3822   5.3933   5.3938   5.4294   5.4685   5.5076
     5.5137   5.5392   5.5520   5.5629   5.5942   5.6262   5.6288   5.7290
     5.7505   5.7962   5.8128   5.8597   5.8616   5.9379   5.9453   5.9626
     6.0562   6.0698   6.0982   6.1095   6.1361   6.1472   6.1638   6.1800
     6.1802   6.2092   6.2325   6.2355   6.2545   6.2723   6.2764   6.2856
     6.2859   6.2965   6.3092   6.3262   6.3630   6.3793   6.3853   6.4206
     6.4225   6.4351   6.4381   6.4544   6.4965   6.5574   6.6188   6.6396
     6.6680   6.6851   6.6942   6.7149   6.7164   6.8760   7.0634   7.0978
     7.5950   7.7919   8.3052   8.5497   8.8266   9.0723   9.0888   9.3480
     9.4148   9.6602   9.7166   9.7775   9.8381   9.9723  10.0377  10.2622
    10.4361  10.4454  10.6217  11.0044  11.0660  11.2102  11.3681  11.4650
    11.5088  11.5922  11.6761  11.7801  12.0043  12.0998  12.1628  12.5155
    12.7546  12.8445  12.9496  13.0675  13.4247  13.5704  13.6155  13.7450
    13.7547  13.7672  14.0945  14.1307  14.1499  14.3915

          k = 0.2083 0.1443 0.0000 ( 27514 PWs)   bands (ev):

    -0.4895  -0.1536   0.3358   0.9069   1.4282   1.7304   1.7476   1.7897
     1.8359   1.8509   1.9450   2.0293   2.0433   2.1316   2.2216   2.2722
     2.2933   2.3509   2.3715   2.4374   2.4380   2.4652   2.4713   2.5878
     2.5890   2.6116   2.6881   2.6883   2.7051   2.7848   2.7884   2.8161
     2.8616   2.8765   2.9015   2.9878   3.0069   3.0791   3.1068   3.1253
     3.1794   3.1957   3.2608   3.3237   3.3392   3.3703   3.4276   3.4379
     3.4385   3.4498   3.4950   3.5051   3.5631   3.5837   3.6178   3.6259
     3.7277   3.7314   3.7375   3.7493   3.7596   3.8016   3.8133   3.8391
     3.8768   3.8832   3.9151   3.9397   3.9496   3.9668   3.9785   3.9986
     4.0264   4.0383   4.0766   4.1155   4.1163   4.1335   4.1680   4.1795
     4.1830   4.2001   4.2100   4.2233   4.2266   4.2496   4.2892   4.3071
     4.3126   4.3152   4.3251   4.3456   4.3482   4.3604   4.3606   4.4811
     4.4830   4.4892   4.5158   4.5239   4.5443   4.5653   4.5825   4.5970
     4.6384   4.6825   4.7637   4.7903   4.8290   4.8363   4.8767   4.9331
     4.9529   4.9754   4.9946   5.0288   5.0594   5.1063   5.1348   5.1543
     5.1653   5.1928   5.1965   5.2144   5.2399   5.2972   5.3091   5.3471
     5.3536   5.3611   5.3814   5.3903   5.4524   5.4540   5.4717   5.4922
     5.5233   5.5272   5.5527   5.5769   5.6202   5.6435   5.6727   5.6828
     5.7535   5.8170   5.8221   5.8598   5.9234   5.9375   5.9442   5.9701
     5.9950   6.0154   6.0519   6.0729   6.0950   6.1195   6.1468   6.1597
     6.1620   6.1720   6.1937   6.2115   6.2241   6.2483   6.2593   6.2649
     6.2717   6.3125   6.3222   6.3401   6.3663   6.3730   6.3871   6.4139
     6.4314   6.4321   6.4526   6.4831   6.5009   6.5581   6.6098   6.6149
     6.6742   6.6776   6.7116   6.7153   6.7551   6.8587   7.0818   7.2086
     7.5874   7.7915   7.9545   8.0388   8.2636   8.3153   8.6851   9.0907
     9.2939   9.4723   9.7442   9.8461   9.8479  10.0410  10.2085  10.3989
    10.4852  10.5951  10.7894  11.0412  11.0647  11.1418  11.2131  11.4139
    11.4748  11.6775  11.7863  11.8818  11.9903  12.2138  12.2572  12.4303
    12.6411  12.9782  13.0109  13.1154  13.1561  13.5265  13.5948  13.6174
    13.7714  13.9138  14.2001  14.2890  14.2969  14.4468

          k = 0.2083 0.2406 0.0000 ( 27501 PWs)   bands (ev):

    -0.2964   0.0346   0.5170   1.0819   1.5992   1.6532   1.7752   1.8822
     1.8925   1.9848   1.9973   2.0384   2.0945   2.0983   2.1596   2.2190
     2.2450   2.2592   2.3038   2.3195   2.3700   2.4264   2.4483   2.4701
     2.4759   2.5039   2.5475   2.6339   2.6433   2.7050   2.7105   2.7329
     2.7749   2.7849   2.7928   2.8493   2.8588   2.9119   2.9842   3.0680
     3.1049   3.1620   3.1923   3.2886   3.3108   3.3180   3.3841   3.4264
     3.4413   3.4639   3.5067   3.5135   3.5748   3.5922   3.6519   3.6646
     3.6707   3.7032   3.7573   3.7580   3.7961   3.8140   3.8367   3.9080
     3.9102   3.9156   3.9377   3.9724   4.0157   4.0160   4.0256   4.0788
     4.0923   4.1176   4.1387   4.1447   4.1557   4.1816   4.2015   4.2209
     4.2248   4.2405   4.2648   4.2693   4.2795   4.2941   4.3177   4.3243
     4.3439   4.3909   4.4117   4.4229   4.4443   4.4655   4.4815   4.4816
     4.5153   4.5789   4.5828   4.5915   4.6123   4.6543   4.6664   4.6794
     4.7210   4.7320   4.7556   4.8106   4.8123   4.8660   4.8812   4.9127
     4.9543   4.9778   5.0015   5.0113   5.0296   5.0558   5.0994   5.1109
     5.1486   5.1901   5.1993   5.2507   5.2747   5.3006   5.3233   5.3608
     5.3797   5.4087   5.4478   5.4583   5.4670   5.4929   5.5124   5.5352
     5.5811   5.5894   5.6006   5.6188   5.6600   5.6705   5.6851   5.7553
     5.7628   5.7695   5.8026   5.8419   5.8698   5.8960   5.9064   5.9528
     5.9922   5.9940   6.0247   6.0628   6.0647   6.0753   6.0791   6.1531
     6.1706   6.1773   6.1855   6.2041   6.2153   6.2205   6.2301   6.2494
     6.2653   6.2979   6.3310   6.3647   6.3738   6.3915   6.4053   6.4103
     6.4357   6.4447   6.4799   6.4931   6.5166   6.5308   6.5648   6.5895
     6.6477   6.6611   6.7038   6.7104   6.8305   6.9009   7.0565   7.1588
     7.3105   7.3801   7.5688   7.5834   7.8962   8.2719   8.3437   8.6556
     9.1225   9.5027   9.5993   9.6730   9.8456   9.8993   9.9252  10.1181
    10.1418  10.4140  10.5513  10.5842  10.7317  11.0368  11.2436  11.4985
    11.5491  11.6985  11.9460  12.1918  12.2855  12.3446  12.3900  12.6904
    12.8310  12.9782  13.1378  13.2749  13.2769  13.3735  13.5422  13.6250
    13.8337  14.0746  14.1922  14.2397  14.3196  14.3634

          k = 0.2083 0.3368 0.0000 ( 27495 PWs)   bands (ev):

    -0.0153   0.3064   0.7752   1.3264   1.5899   1.7080   1.8300   1.8310
     1.9456   2.0088   2.0217   2.0863   2.1128   2.1326   2.1387   2.1783
     2.1825   2.2188   2.2315   2.2430   2.3318   2.3376   2.3560   2.3710
     2.4393   2.4677   2.5197   2.5291   2.5603   2.5779   2.5928   2.6454
     2.6576   2.6895   2.7542   2.8136   2.8174   2.8852   2.8935   2.9372
     2.9592   3.1393   3.2154   3.2254   3.2907   3.3117   3.3499   3.3551
     3.4330   3.4826   3.5072   3.5366   3.5512   3.5737   3.5852   3.6106
     3.6650   3.6858   3.7541   3.7727   3.8100   3.8530   3.8614   3.8868
     3.9018   3.9261   3.9369   3.9549   4.0236   4.0271   4.0465   4.0552
     4.0640   4.0830   4.1073   4.1596   4.1875   4.1999   4.2161   4.2363
     4.2452   4.2576   4.2647   4.2896   4.3102   4.3113   4.3353   4.3811
     4.3901   4.4132   4.4286   4.4388   4.4752   4.5483   4.5768   4.5778
     4.5904   4.6014   4.6308   4.6545   4.6568   4.6746   4.6991   4.7092
     4.7613   4.8106   4.8240   4.8572   4.9029   4.9057   4.9425   4.9488
     4.9814   4.9957   5.0041   5.0271   5.0473   5.0798   5.1038   5.1194
     5.1786   5.1881   5.2403   5.2449   5.2746   5.3614   5.3901   5.4136
     5.4330   5.4398   5.4520   5.4760   5.4819   5.5326   5.5462   5.5660
     5.6086   5.6462   5.6703   5.6973   5.7385   5.7524   5.7867   5.8087
     5.8307   5.8442   5.8990   5.9033   5.9220   5.9413   5.9699   5.9795
     6.0058   6.0070   6.0208   6.0397   6.0466   6.0815   6.1020   6.1391
     6.1401   6.1782   6.1950   6.1951   6.2033   6.2223   6.2346   6.2439
     6.2652   6.3063   6.3108   6.3444   6.3790   6.3868   6.4065   6.4175
     6.4305   6.4546   6.4594   6.4615   6.5127   6.5159   6.5590   6.5634
     6.6244   6.6391   6.6868   6.7005   6.7129   6.7900   6.8084   6.9039
     7.0369   7.0449   7.3472   7.6136   7.6836   8.1150   8.4012   8.5024
     8.9269   9.0183   9.0664   9.2275   9.4169   9.6257   9.8884   9.9212
    10.0438  10.2489  10.4615  10.5331  10.6278  10.8577  11.0518  11.0606
    11.3894  11.5827  11.8925  12.0837  12.0928  12.4526  12.5623  12.5979
    13.0402  13.1129  13.2452  13.3552  13.4833  13.6399  13.6606  13.7672
    13.9447  14.0391  14.0896  14.3830  14.4008  14.5884

          k = 0.2083 0.4330 0.0000 ( 27535 PWs)   bands (ev):

     0.3411   0.6460   1.0889   1.5162   1.5722   1.6071   1.7333   1.8180
     1.8301   1.9504   1.9605   2.0368   2.0716   2.0771   2.1040   2.1152
     2.1957   2.2404   2.2548   2.2913   2.3039   2.3572   2.3868   2.3922
     2.4433   2.4563   2.4620   2.4842   2.4883   2.5106   2.5702   2.5776
     2.6370   2.7007   2.7075   2.7508   2.7939   2.8263   2.8356   2.9982
     3.0535   3.1083   3.1701   3.1813   3.2440   3.2731   3.3154   3.3872
     3.3902   3.4220   3.4610   3.4900   3.4902   3.5388   3.5669   3.5912
     3.6492   3.6890   3.6930   3.7070   3.7238   3.8058   3.8414   3.8596
     3.8802   3.8989   3.9214   3.9234   3.9561   3.9908   4.0172   4.0244
     4.0275   4.0682   4.0734   4.0782   4.1449   4.1598   4.1892   4.2093
     4.2400   4.2413   4.2595   4.2871   4.3072   4.3393   4.3527   4.3722
     4.3827   4.4134   4.4163   4.4576   4.4868   4.5210   4.5398   4.5412
     4.5836   4.6418   4.6596   4.7016   4.7479   4.7533   4.7588   4.8231
     4.8426   4.8458   4.8583   4.9194   4.9280   4.9427   4.9565   4.9811
     5.0153   5.0261   5.0809   5.1089   5.1556   5.1768   5.1770   5.1965
     5.2198   5.2273   5.2584   5.3037   5.3066   5.3369   5.3415   5.3970
     5.4364   5.4788   5.4943   5.5344   5.5449   5.5725   5.6118   5.6211
     5.6414   5.6563   5.7299   5.7754   5.8016   5.8480   5.8670   5.8841
     5.9186   5.9497   5.9626   5.9862   6.0086   6.0166   6.0294   6.0391
     6.0422   6.0609   6.0683   6.0955   6.1003   6.1254   6.1341   6.1424
     6.1688   6.1738   6.1868   6.2005   6.2193   6.2259   6.2359   6.2708
     6.2723   6.2784   6.3100   6.3181   6.3510   6.3513   6.3840   6.3901
     6.4028   6.4166   6.4408   6.4436   6.4468   6.4761   6.4962   6.5092
     6.5482   6.5940   6.6019   6.6633   6.6833   6.7187   6.7233   6.8594
     6.9701   7.1302   7.2891   7.6103   7.7385   8.0673   8.1678   8.3636
     8.3998   8.4579   8.7158   8.9062   8.9643   9.3242   9.4101   9.7509
     9.9371  10.1395  10.4984  10.5359  10.7904  10.9617  10.9860  11.0082
    11.3909  11.6672  11.7690  11.8455  12.1725  12.3003  12.4105  12.4399
    12.6147  12.6152  12.9278  13.1747  13.4025  13.5669  13.6318  13.7238
    13.9242  14.1862  14.2794  14.2859  14.7182  14.7964

          k = 0.2083 0.5292 0.0000 ( 27542 PWs)   bands (ev):

     0.7500   1.0260   1.1687   1.4025   1.4232   1.6066   1.6936   1.7255
     1.8537   1.8897   1.9310   1.9418   1.9645   2.0854   2.0887   2.1379
     2.1459   2.2167   2.2308   2.2416   2.2892   2.3436   2.3478   2.4011
     2.4164   2.4283   2.4890   2.5322   2.5393   2.5924   2.6072   2.6192
     2.7087   2.7165   2.7552   2.7676   2.7829   2.8833   2.9314   2.9869
     3.0698   3.0935   3.1565   3.1813   3.1870   3.2477   3.2932   3.3115
     3.3517   3.3738   3.4162   3.4311   3.4649   3.4766   3.4911   3.5398
     3.5792   3.6007   3.6471   3.6665   3.6855   3.7886   3.8183   3.8486
     3.8518   3.8587   3.8928   3.9279   3.9448   3.9643   3.9700   3.9986
     4.0122   4.0298   4.0502   4.0633   4.1248   4.1370   4.1615   4.1703
     4.2008   4.2147   4.2265   4.2487   4.2596   4.2694   4.2950   4.3762
     4.4081   4.4103   4.4217   4.4415   4.5046   4.5299   4.5305   4.5553
     4.5663   4.6623   4.7196   4.7582   4.7700   4.8220   4.8354   4.8475
     4.8558   4.9084   4.9118   4.9238   4.9407   4.9468   4.9553   5.0317
     5.0458   5.0845   5.1316   5.1886   5.1887   5.2191   5.2294   5.2689
     5.2771   5.2798   5.3155   5.3591   5.3753   5.3884   5.4189   5.4616
     5.4625   5.4785   5.5266   5.5473   5.5564   5.5965   5.6531   5.6633
     5.6823   5.6871   5.7401   5.7672   5.7945   5.8125   5.8176   5.8329
     5.8776   5.9060   5.9145   5.9747   5.9897   5.9985   6.0243   6.0404
     6.0637   6.0645   6.0910   6.1080   6.1111   6.1271   6.1462   6.1586
     6.1602   6.1641   6.1900   6.1921   6.2252   6.2355   6.2406   6.2419
     6.2636   6.2771   6.2772   6.2898   6.3134   6.3473   6.3517   6.3914
     6.4410   6.4453   6.4517   6.4689   6.5031   6.5072   6.5628   6.5721
     6.5773   6.5937   6.6575   6.6614   6.6762   6.7982   6.9865   7.1044
     7.2570   7.2669   7.4133   7.5112   7.6024   7.7092   7.9025   7.9883
     8.0956   8.2153   8.2776   8.7360   8.9294   9.0116   9.1528   9.6531
     9.8854  10.0481  10.2264  10.5775  10.9050  11.1808  11.2912  11.3185
    11.5143  11.5187  11.7287  11.8405  11.9629  12.0149  12.3029  12.3516
    12.3762  12.5727  12.6339  12.9213  13.2235  13.4745  13.5130  13.7976
    13.8409  14.0125  14.1733  14.2952  14.5005  14.5117

          k = 0.2917 0.0481 0.0000 ( 27533 PWs)   bands (ev):

    -0.3681  -0.0349   0.4510   1.0198   1.4555   1.5407   1.6541   1.8359
     1.9269   1.9356   1.9443   1.9686   2.1027   2.2044   2.2445   2.3261
     2.3929   2.5204   2.5522   2.5642   2.5777   2.5963   2.6683   2.6989
     2.7748   2.7842   2.7956   2.8213   2.8533   2.8982   2.9215   2.9351
     2.9424   3.0440   3.0637   3.0967   3.1118   3.1539   3.1655   3.1789
     3.2335   3.2559   3.2801   3.3022   3.3250   3.3273   3.3483   3.4155
     3.4273   3.4531   3.4656   3.4693   3.4859   3.5125   3.5212   3.5939
     3.6198   3.6486   3.6888   3.6941   3.6943   3.7453   3.7760   3.8333
     3.8503   3.8564   3.8647   3.8942   3.8963   3.9156   3.9348   3.9771
     3.9804   4.0122   4.0330   4.0456   4.0603   4.0902   4.1008   4.1095
     4.1255   4.1567   4.1718   4.1818   4.1935   4.1967   4.2039   4.2606
     4.2652   4.2824   4.3029   4.3275   4.3627   4.3824   4.3900   4.4017
     4.4111   4.4379   4.4436   4.4578   4.4626   4.5956   4.6096   4.6160
     4.6227   4.6962   4.7259   4.7629   4.8223   4.8453   4.8497   4.9044
     4.9124   4.9634   4.9718   5.0019   5.0084   5.0356   5.0755   5.0936
     5.1156   5.1205   5.1405   5.1796   5.1827   5.2002   5.2229   5.2243
     5.2859   5.2986   5.3323   5.3364   5.3571   5.3582   5.3916   5.4379
     5.4536   5.5072   5.5216   5.5355   5.5505   5.5816   5.6353   5.6493
     5.6989   5.7260   5.7371   5.8222   5.8334   5.8765   5.9150   5.9196
     5.9646   5.9674   5.9962   6.0444   6.0553   6.0740   6.0750   6.0939
     6.1068   6.1112   6.1512   6.1576   6.1704   6.1845   6.1869   6.2080
     6.2287   6.2374   6.2452   6.2464   6.2554   6.2670   6.2717   6.2855
     6.2972   6.3186   6.3328   6.3534   6.3783   6.4641   6.4769   6.5112
     6.5383   6.5734   6.6079   6.6169   6.6333   6.6520   6.8435   7.0695
     7.3903   7.7620   8.1871   8.5059   8.9504   9.1543   9.2746   9.4316
     9.5968   9.8072  10.0619  10.1081  10.1143  10.3164  10.4054  10.5700
    10.6038  10.7540  10.8439  10.9612  10.9990  11.2135  11.2962  11.3198
    11.4308  11.5299  11.7078  11.8932  12.1669  12.2805  12.3414  12.6966
    12.9219  12.9952  13.0164  13.0179  13.1694  13.3817  13.5639  13.6368
    13.8094  13.9910  14.0034  14.0988  14.2435  14.3120

          k = 0.2917 0.1443 0.0000 ( 27530 PWs)   bands (ev):

    -0.2734   0.0570   0.5388   1.1032   1.4452   1.6202   1.6548   1.9077
     1.9173   1.9601   2.0072   2.0273   2.1382   2.1892   2.2043   2.3475
     2.4340   2.4352   2.4509   2.5195   2.5381   2.5685   2.6042   2.6252
     2.6464   2.6556   2.7143   2.8171   2.8213   2.8306   2.8465   2.8946
     2.9347   2.9367   2.9851   3.0256   3.0585   3.0861   3.1119   3.1637
     3.2038   3.2686   3.2935   3.3121   3.3450   3.3704   3.3712   3.4124
     3.4393   3.4560   3.4617   3.5057   3.5393   3.5591   3.5597   3.6360
     3.6484   3.6622   3.6768   3.6882   3.7306   3.7387   3.7486   3.7994
     3.8002   3.8452   3.8994   3.9116   3.9282   3.9460   3.9841   3.9866
     4.0504   4.0854   4.1024   4.1093   4.1228   4.1405   4.1424   4.1627
     4.1959   4.2083   4.2324   4.2448   4.2614   4.2784   4.2796   4.2985
     4.2991   4.3070   4.3332   4.3446   4.3605   4.3655   4.3886   4.3964
     4.4485   4.4568   4.4754   4.5010   4.5579   4.5775   4.6041   4.6217
     4.6456   4.7054   4.7457   4.7705   4.7767   4.7882   4.8286   4.8643
     4.8846   4.8862   4.9386   4.9500   4.9933   5.0205   5.0339   5.0606
     5.0777   5.1208   5.1408   5.1764   5.1883   5.2045   5.2365   5.2655
     5.2809   5.3083   5.3304   5.3407   5.3713   5.3908   5.4250   5.4411
     5.4770   5.5006   5.5013   5.5483   5.5624   5.5696   5.6399   5.6445
     5.7067   5.7252   5.7644   5.8030   5.8062   5.8300   5.8640   5.8655
     5.8748   5.9469   5.9604   6.0248   6.0374   6.0389   6.0700   6.0845
     6.0974   6.0979   6.1139   6.1279   6.1583   6.1743   6.2030   6.2200
     6.2306   6.2488   6.2507   6.2659   6.2771   6.2790   6.2878   6.3087
     6.3215   6.3432   6.3654   6.3890   6.3986   6.4821   6.4915   6.5129
     6.5534   6.5662   6.6202   6.6328   6.6436   6.6861   6.9249   7.0655
     7.4940   7.7765   8.1507   8.2736   8.3698   8.5302   8.6314   9.1128
     9.2911   9.6032   9.8273   9.8985  10.0793  10.2286  10.2738  10.5215
    10.6217  10.7042  10.8691  11.0464  11.1559  11.2897  11.3936  11.4103
    11.5980  11.8269  11.8561  11.9337  12.2272  12.3665  12.3864  12.6325
    12.9058  12.9941  13.0564  13.1249  13.3113  13.3777  13.4739  13.6656
    13.9659  13.9697  14.0719  14.2731  14.3064  14.3841

          k = 0.2917 0.2406 0.0000 ( 27522 PWs)   bands (ev):

    -0.0867   0.2374   0.7098   1.2643   1.4408   1.6634   1.7735   1.9117
     1.9508   2.0465   2.1078   2.1414   2.1657   2.1977   2.2006   2.2930
     2.3160   2.3262   2.3856   2.4619   2.4852   2.5088   2.5097   2.5372
     2.5513   2.5992   2.6825   2.6916   2.7309   2.7658   2.7811   2.8203
     2.8367   2.8721   2.8949   2.9233   2.9794   2.9984   3.0498   3.1143
     3.1929   3.1967   3.2507   3.2640   3.3062   3.3322   3.3686   3.4056
     3.4541   3.4594   3.4863   3.4880   3.5508   3.5822   3.5853   3.5952
     3.6084   3.6441   3.6952   3.7272   3.7467   3.7602   3.8196   3.8576
     3.8904   3.8915   3.9215   3.9387   3.9710   4.0352   4.0531   4.0547
     4.0662   4.0916   4.1083   4.1355   4.1385   4.1724   4.1753   4.1854
     4.2118   4.2338   4.2620   4.2645   4.2897   4.3138   4.3409   4.3499
     4.3582   4.3780   4.3813   4.4095   4.4364   4.4469   4.4591   4.4716
     4.5281   4.5543   4.5637   4.5805   4.6095   4.6279   4.6327   4.6457
     4.6842   4.7019   4.7020   4.7121   4.7355   4.7758   4.7950   4.8115
     4.8460   4.8835   4.9264   4.9600   4.9689   5.0078   5.0129   5.0386
     5.0690   5.1177   5.1238   5.1921   5.2006   5.2364   5.2563   5.2733
     5.3489   5.3591   5.3631   5.3939   5.4213   5.4353   5.4444   5.4747
     5.4969   5.5277   5.5320   5.5619   5.5752   5.5882   5.6165   5.6323
     5.6588   5.6670   5.6846   5.7683   5.7793   5.8158   5.8262   5.8399
     5.8635   5.8668   5.9262   5.9809   5.9827   6.0406   6.0448   6.0786
     6.0988   6.1183   6.1460   6.1534   6.1744   6.1851   6.1853   6.2164
     6.2224   6.2273   6.2575   6.2659   6.2811   6.2993   6.3320   6.3324
     6.3451   6.3682   6.4065   6.4120   6.4572   6.4817   6.5280   6.5321
     6.5520   6.5598   6.6253   6.6374   6.6613   6.7074   7.0720   7.0726
     7.4951   7.6057   7.6511   7.8156   7.9146   8.2540   8.5744   8.5797
     9.0192   9.1774   9.3185   9.4513   9.7537   9.9025   9.9147  10.1069
    10.4930  10.5535  10.7646  10.8740  11.0010  11.0829  11.2965  11.5453
    11.7826  12.0280  12.1211  12.3491  12.4782  12.4984  12.6506  12.9366
    12.9756  13.0760  13.1668  13.2625  13.3075  13.5244  13.7061  13.8267
    13.9554  14.1418  14.3729  14.5172  14.6822  14.7022

          k = 0.2917 0.3368 0.0000 ( 27531 PWs)   bands (ev):

     0.1857   0.4985   0.9539   1.4598   1.4902   1.6925   1.8936   1.9301
     1.9844   2.0383   2.1107   2.1114   2.1857   2.2150   2.2356   2.2485
     2.3181   2.3328   2.3628   2.3655   2.3756   2.4307   2.4338   2.4671
     2.5628   2.5868   2.5916   2.6208   2.6454   2.6637   2.6784   2.7284
     2.7644   2.7660   2.8679   2.8938   2.9182   2.9538   2.9893   3.0778
     3.0835   3.1696   3.1772   3.2461   3.2821   3.2914   3.3229   3.3420
     3.4119   3.4750   3.4861   3.5107   3.5185   3.5225   3.5661   3.5859
     3.6240   3.6613   3.6743   3.6991   3.7445   3.8140   3.8360   3.8493
     3.8922   3.8975   3.9201   3.9649   3.9944   3.9944   4.0214   4.0369
     4.0444   4.0703   4.0853   4.1067   4.1253   4.1358   4.1952   4.2250
     4.2320   4.2466   4.2530   4.2796   4.2897   4.3138   4.3321   4.3391
     4.3694   4.3985   4.4065   4.4400   4.4492   4.5035   4.5197   4.5361
     4.5844   4.5868   4.5951   4.6079   4.6435   4.6645   4.6741   4.6880
     4.7154   4.7319   4.7528   4.7843   4.8158   4.8615   4.8702   4.8793
     4.8953   4.9506   4.9569   4.9824   5.0013   5.0314   5.0744   5.0996
     5.1379   5.1400   5.1423   5.1936   5.2512   5.2675   5.2741   5.3283
     5.3518   5.3690   5.3696   5.4301   5.4757   5.4835   5.4863   5.5078
     5.5353   5.5667   5.5824   5.6236   5.6730   5.6741   5.6834   5.7018
     5.7039   5.7511   5.7619   5.7851   5.7939   5.8219   5.8337   5.8488
     5.8633   5.8958   5.9249   5.9514   5.9726   6.0352   6.0442   6.0594
     6.0743   6.1249   6.1336   6.1503   6.1663   6.1852   6.2039   6.2165
     6.2172   6.2345   6.2434   6.2503   6.2751   6.2944   6.3220   6.3393
     6.3791   6.3867   6.4065   6.4448   6.4486   6.4769   6.5002   6.5281
     6.5562   6.5712   6.5799   6.6465   6.6885   6.7860   6.9631   7.0526
     7.1246   7.1978   7.2156   7.6810   7.8626   7.8907   8.4281   8.4910
     8.5655   8.7093   8.7555   8.9833   9.3042   9.4021   9.6120   9.8262
    10.2202  10.2961  10.4217  10.8095  11.1012  11.1538  11.2807  11.2938
    11.4191  11.8597  12.1904  12.3050  12.3904  12.6588  12.7774  12.8747
    13.1661  13.4156  13.5216  13.7484  13.7663  13.9638  14.0429  14.2046
    14.2491  14.3760  14.4871  14.5450  14.5899  14.7348

          k = 0.2917 0.4330 0.0000 ( 27509 PWs)   bands (ev):

     0.5325   0.8262   1.2518   1.5139   1.7083   1.7531   1.7534   1.8920
     1.9130   1.9788   2.0177   2.0827   2.1292   2.1448   2.1528   2.2326
     2.3010   2.3164   2.3280   2.3573   2.4181   2.4609   2.4810   2.5224
     2.5239   2.5407   2.5661   2.5991   2.6022   2.6063   2.6513   2.6854
     2.7794   2.7948   2.8137   2.8252   2.8670   2.9315   2.9514   3.0896
     3.1081   3.1388   3.1648   3.2289   3.2320   3.2649   3.2905   3.3383
     3.3444   3.3849   3.4266   3.4528   3.4670   3.5106   3.5120   3.5479
     3.6049   3.6277   3.6588   3.6833   3.6976   3.7372   3.7527   3.7720
     3.8402   3.8816   3.8833   3.9064   3.9425   3.9833   3.9837   4.0156
     4.0209   4.0319   4.0679   4.0773   4.0803   4.1305   4.1570   4.1588
     4.1967   4.2176   4.2241   4.2477   4.2739   4.2766   4.3114   4.3150
     4.3203   4.3745   4.3776   4.4474   4.4713   4.4713   4.5326   4.5349
     4.5450   4.5884   4.6110   4.6812   4.7222   4.7247   4.7482   4.7791
     4.7892   4.8659   4.8761   4.8900   4.9351   4.9599   4.9610   4.9694
     4.9780   4.9819   5.0012   5.0228   5.0702   5.1159   5.1381   5.1417
     5.1801   5.1922   5.2351   5.2411   5.2784   5.2841   5.3147   5.3510
     5.3680   5.4080   5.4763   5.4765   5.4834   5.5015   5.6043   5.6070
     5.6088   5.6377   5.6461   5.6786   5.7057   5.7706   5.7820   5.7931
     5.8061   5.8252   5.8499   5.8680   5.8725   5.8742   5.9028   5.9344
     5.9628   5.9906   6.0007   6.0152   6.0402   6.0552   6.0712   6.0797
     6.1143   6.1176   6.1390   6.1587   6.1675   6.1731   6.1875   6.2085
     6.2334   6.2470   6.2604   6.2728   6.2732   6.2852   6.2934   6.3270
     6.3596   6.3939   6.4059   6.4066   6.4321   6.4494   6.4512   6.5060
     6.5224   6.5433   6.5660   6.5899   6.6063   6.6383   6.6894   6.7300
     6.9246   7.0480   7.2742   7.5485   7.7308   7.8007   7.9454   7.9758
     8.2576   8.2896   8.5465   8.5881   8.8934   9.1192   9.3417   9.6247
     9.7717  10.1321  10.2450  10.7222  10.7304  11.2131  11.2949  11.4933
    11.6754  11.8663  11.9905  12.2620  12.4261  12.4971  12.8148  12.8850
    13.0532  13.4296  13.5617  13.7706  13.7754  13.8457  13.9314  14.1198
    14.2922  14.4478  14.4537  14.8024  14.9444  14.9618

          k = 0.2917 0.5292 0.0000 ( 27525 PWs)   bands (ev):

     0.9340   1.1954   1.3531   1.5603   1.5752   1.6083   1.7427   1.8517
     1.8582   1.9865   2.0083   2.0149   2.0592   2.1097   2.1686   2.1984
     2.2247   2.2804   2.3080   2.3318   2.3550   2.4285   2.4665   2.4879
     2.5137   2.5476   2.5681   2.6211   2.6825   2.7235   2.7341   2.7666
     2.7884   2.8148   2.8468   2.8573   2.9034   2.9599   3.0563   3.0663
     3.0850   3.1119   3.1290   3.1882   3.2023   3.2065   3.2419   3.2568
     3.3072   3.3494   3.3797   3.3820   3.3985   3.4351   3.4415   3.4790
     3.5136   3.5388   3.6447   3.6673   3.6801   3.7212   3.7657   3.8069
     3.8189   3.8233   3.8526   3.8653   3.8954   3.9091   3.9291   3.9860
     3.9985   4.0211   4.0243   4.0516   4.0636   4.0673   4.1009   4.1348
     4.1586   4.1650   4.1878   4.1921   4.2580   4.2626   4.2646   4.2759
     4.3266   4.3719   4.4690   4.4877   4.4958   4.5345   4.5440   4.5612
     4.5685   4.6186   4.6695   4.6721   4.7176   4.7481   4.7572   4.7729
     4.7917   4.8211   4.9077   4.9279   4.9422   4.9476   5.0090   5.0173
     5.0351   5.0538   5.0856   5.1189   5.1599   5.1814   5.1834   5.2018
     5.2262   5.2467   5.3053   5.3309   5.3383   5.3494   5.3746   5.4317
     5.4456   5.4951   5.5244   5.5276   5.5521   5.5780   5.6045   5.6306
     5.6827   5.7127   5.7243   5.7353   5.7838   5.7905   5.8210   5.8409
     5.8497   5.8657   5.8926   5.8938   5.9183   5.9232   5.9366   5.9429
     5.9473   5.9800   5.9957   6.0047   6.0222   6.0349   6.0472   6.0594
     6.1054   6.1120   6.1374   6.1532   6.1661   6.1782   6.1947   6.2045
     6.2192   6.2252   6.2330   6.2554   6.2813   6.2908   6.3106   6.3240
     6.3399   6.3596   6.4023   6.4112   6.4343   6.4553   6.4577   6.4870
     6.5188   6.5432   6.5514   6.5612   6.6054   6.7524   6.8337   6.8498
     7.0251   7.0434   7.1384   7.3219   7.4503   7.5049   7.5593   7.6752
     7.7770   8.3177   8.3276   8.4070   8.5515   9.1958   9.2040   9.3501
     9.5610  10.0887  10.2360  10.4275  10.6503  10.9785  11.5650  11.6562
    11.7447  11.8666  12.2111  12.3797  12.5293  12.6837  12.7820  12.7854
    12.7924  13.1706  13.2656  13.6177  13.7554  13.7621  13.8822  13.9240
    14.1102  14.3611  14.5943  14.6715  14.6731  15.1232

          k = 0.3750 0.0481 0.0000 ( 27554 PWs)   bands (ev):

    -0.0847   0.2400   0.7139   1.0430   1.2719   1.2944   1.6524   1.7874
     2.0638   2.0744   2.1585   2.1597   2.1813   2.2209   2.3865   2.4493
     2.4967   2.5873   2.5948   2.6202   2.6956   2.7210   2.7239   2.7396
     2.7627   2.7938   2.8032   2.8653   2.9061   2.9331   2.9373   2.9946
     3.0233   3.0252   3.0849   3.1270   3.1437   3.1692   3.1888   3.2307
     3.2327   3.2595   3.2837   3.2873   3.2959   3.3240   3.3289   3.3630
     3.3983   3.4114   3.4520   3.4593   3.4713   3.4893   3.5050   3.5224
     3.5334   3.5776   3.5964   3.6614   3.6839   3.6933   3.7162   3.7227
     3.8376   3.8471   3.8618   3.8813   3.8854   3.9089   3.9339   3.9533
     3.9581   3.9930   4.0333   4.0459   4.0544   4.0973   4.1063   4.1106
     4.1486   4.1752   4.1977   4.2021   4.2038   4.2121   4.2585   4.2722
     4.2964   4.2984   4.3330   4.3422   4.3579   4.3788   4.4072   4.4399
     4.4510   4.4901   4.4994   4.5610   4.5976   4.6016   4.6045   4.6296
     4.6469   4.6524   4.6796   4.7168   4.7570   4.7936   4.8684   4.8999
     4.9237   4.9366   4.9394   4.9557   4.9785   5.0069   5.0097   5.0296
     5.0610   5.0615   5.0759   5.1055   5.1362   5.1588   5.1700   5.1785
     5.2168   5.2580   5.2646   5.2734   5.2993   5.3293   5.3531   5.3969
     5.4211   5.4286   5.4432   5.5063   5.5148   5.5439   5.5666   5.5884
     5.6053   5.6580   5.6682   5.7092   5.7092   5.7300   5.7328   5.7641
     5.8486   5.8937   5.9093   5.9292   5.9373   5.9464   5.9713   5.9955
     6.0275   6.0555   6.0590   6.0672   6.0911   6.1019   6.1188   6.1403
     6.1455   6.1467   6.1736   6.1742   6.1893   6.1929   6.2010   6.2301
     6.2436   6.2516   6.2742   6.3199   6.3243   6.3369   6.3378   6.4444
     6.4763   6.5421   6.5519   6.5975   6.6197   6.6488   6.7403   7.0980
     7.3598   7.7232   8.0551   8.5654   8.8097   9.2766   9.5098   9.6725
     9.8009   9.9117  10.1948  10.2083  10.3818  10.5683  10.5809  10.6072
    10.6579  10.9101  10.9661  11.0596  11.1383  11.2196  11.2813  11.4245
    11.5623  11.5724  12.0164  12.1814  12.2920  12.3725  12.4709  12.5364
    12.6542  12.9504  13.1357  13.1667  13.2720  13.3914  13.5093  13.5856
    13.7296  13.8723  14.1325  14.1404  14.3007  14.3801

          k = 0.3750 0.1443 0.0000 ( 27559 PWs)   bands (ev):

     0.0043   0.3250   0.7924   1.0800   1.3257   1.3420   1.6657   1.8475
     2.0489   2.1096   2.1635   2.2132   2.2387   2.2536   2.3834   2.3941
     2.4660   2.4959   2.5441   2.5709   2.6276   2.6865   2.6938   2.6985
     2.7138   2.7414   2.8054   2.8104   2.8461   2.9026   2.9284   2.9486
     2.9533   2.9806   3.0350   3.1120   3.1265   3.1753   3.2017   3.2080
     3.2349   3.2639   3.2754   3.2909   3.3120   3.3200   3.3510   3.3760
     3.3961   3.4610   3.4657   3.4970   3.5010   3.5233   3.5479   3.5582
     3.5745   3.5949   3.6156   3.6270   3.6425   3.7047   3.7156   3.7502
     3.8005   3.8460   3.8780   3.9004   3.9095   3.9454   3.9866   3.9931
     4.0213   4.0472   4.0535   4.0747   4.1281   4.1352   4.1464   4.1817
     4.1946   4.2021   4.2059   4.2242   4.2246   4.2450   4.2476   4.2795
     4.2950   4.2977   4.3100   4.3281   4.3704   4.4198   4.4334   4.4657
     4.4723   4.4944   4.5160   4.5333   4.5557   4.5602   4.5824   4.6105
     4.6374   4.7123   4.7131   4.7491   4.7768   4.7823   4.8317   4.8545
     4.8772   4.8856   4.9023   4.9027   4.9622   4.9692   5.0144   5.0194
     5.0316   5.0634   5.0750   5.1108   5.1148   5.1465   5.1735   5.1948
     5.2255   5.2442   5.2710   5.2730   5.2919   5.3455   5.3727   5.3931
     5.3931   5.4459   5.4519   5.4708   5.5043   5.5264   5.5529   5.5879
     5.5891   5.6052   5.6469   5.6509   5.7179   5.7269   5.7279   5.7621
     5.7744   5.8010   5.8268   5.8846   5.9278   5.9372   5.9418   5.9671
     6.0018   6.0285   6.0390   6.0799   6.0929   6.0947   6.1296   6.1495
     6.1552   6.1709   6.1748   6.1920   6.2293   6.2345   6.2525   6.2741
     6.2766   6.2855   6.2856   6.3391   6.3690   6.3807   6.4225   6.4779
     6.5274   6.5728   6.5899   6.6006   6.6487   6.7044   6.7422   7.1619
     7.3783   7.7975   8.0866   8.4806   8.6022   8.7208   8.8354   9.0297
     9.4786   9.5628   9.6510   9.8361   9.8734  10.2579  10.2718  10.6971
    10.7011  10.8767  11.0595  11.2480  11.2710  11.4514  11.5711  11.6654
    11.8489  11.9852  12.1167  12.1274  12.4324  12.4786  12.5552  12.6273
    12.7827  12.9148  13.1106  13.2616  13.4974  13.5565  13.5723  13.7529
    13.7954  13.8776  14.1439  14.1801  14.2632  14.5541

          k = 0.3750 0.2406 0.0000 ( 27548 PWs)   bands (ev):

     0.1798   0.4921   0.9457   1.1543   1.3917   1.4778   1.7012   1.9640
     2.0199   2.1546   2.2041   2.2802   2.2942   2.3163   2.3668   2.3736
     2.3875   2.4083   2.4554   2.4930   2.5720   2.5901   2.6243   2.6379
     2.6849   2.7157   2.7330   2.7773   2.7929   2.8307   2.8611   2.8953
     2.9054   2.9193   2.9698   3.0295   3.0753   3.0916   3.1113   3.1708
     3.2250   3.2427   3.2739   3.3063   3.3099   3.3467   3.3579   3.4080
     3.4366   3.4470   3.4731   3.5053   3.5071   3.5224   3.5375   3.5529
     3.6104   3.6175   3.6216   3.6308   3.6919   3.7140   3.7635   3.7922
     3.8147   3.8543   3.8712   3.9521   3.9725   3.9763   4.0054   4.0234
     4.0335   4.0746   4.0929   4.1115   4.1485   4.1539   4.1833   4.1912
     4.1989   4.2082   4.2187   4.2228   4.2242   4.2313   4.2648   4.2863
     4.3122   4.3323   4.3964   4.4059   4.4128   4.4400   4.4610   4.4753
     4.4990   4.5142   4.5479   4.5822   4.6010   4.6069   4.6216   4.6341
     4.6785   4.6853   4.6905   4.7179   4.7268   4.7345   4.7581   4.8189
     4.8336   4.8432   4.9154   4.9274   4.9281   4.9471   5.0154   5.0323
     5.0508   5.0743   5.0861   5.1557   5.1705   5.1872   5.2280   5.2301
     5.2381   5.2443   5.3037   5.3206   5.3270   5.3478   5.3557   5.3767
     5.3919   5.4107   5.4675   5.4718   5.4987   5.5065   5.5273   5.5293
     5.5582   5.5777   5.6219   5.6238   5.6399   5.6967   5.7149   5.7516
     5.7609   5.7909   5.7939   5.8621   5.8749   5.9156   5.9291   5.9559
     5.9747   6.0462   6.0528   6.0603   6.1064   6.1076   6.1497   6.1558
     6.1562   6.1730   6.2012   6.2035   6.2368   6.2518   6.2608   6.3053
     6.3348   6.3348   6.3639   6.3810   6.4072   6.4421   6.5015   6.5102
     6.5375   6.5979   6.6075   6.6352   6.6614   6.7708   6.7858   7.2825
     7.4283   7.8111   7.8948   7.9625   8.1449   8.2864   8.6163   8.7692
     8.8812   8.9239   9.0265   9.4171   9.4748   9.6860  10.0032  10.1180
    10.2791  10.6121  10.8934  10.9456  11.2047  11.3916  11.6991  11.9504
    12.0396  12.2768  12.5522  12.5660  12.6026  12.6303  12.7608  12.9477
    13.1308  13.1403  13.4394  13.5177  13.5264  13.6478  13.7191  13.7473
    13.8629  14.3590  14.3642  14.3996  14.5768  14.6349

          k = 0.3750 0.3368 0.0000 ( 27509 PWs)   bands (ev):

     0.4365   0.7345   1.1652   1.2655   1.4965   1.6687   1.7712   2.0123
     2.1073   2.1307   2.2085   2.2132   2.2805   2.3010   2.3047   2.3517
     2.3885   2.4123   2.4323   2.4924   2.5016   2.5341   2.5466   2.5781
     2.6296   2.6855   2.7063   2.7122   2.7201   2.7525   2.8041   2.8251
     2.8481   2.8980   2.9192   2.9766   3.0026   3.0185   3.0641   3.1065
[...]
     7.7939   7.9449   8.2670   8.5445   8.6216   8.7746   9.2502   9.4289
     9.5954   9.6425  10.3044  10.4572  10.5649  10.6672  11.3055  11.5769
    11.8827  12.0320  12.7615  12.7962  13.0298  13.0896  13.1712  13.4151
    13.5984  13.8513  13.8971  13.9957  14.0611  14.1662  14.2964  14.5523
    14.5955  14.7758  14.8784  14.9730  15.1628  15.5321

          k = 0.4583 0.0481 0.0000 ( 27552 PWs)   bands (ev):

     0.2537   0.5641   0.6350   0.9224   1.0167   1.3387   1.5526   1.8327
     2.0559   2.3085   2.3100   2.3405   2.3825   2.4119   2.4266   2.4685
     2.5430   2.5557   2.5689   2.5741   2.6550   2.6701   2.6806   2.6981
     2.8072   2.8124   2.8194   2.8601   2.9479   2.9505   3.0087   3.0439
     3.0691   3.0727   3.1161   3.1429   3.1675   3.1909   3.2022   3.2319
     3.2454   3.2927   3.2935   3.3253   3.3334   3.3507   3.3552   3.3818
     3.4062   3.4068   3.4423   3.4479   3.4484   3.4634   3.4760   3.4872
     3.4975   3.5023   3.5360   3.5690   3.5972   3.6019   3.7116   3.7504
     3.7732   3.7863   3.8051   3.8358   3.8435   3.8766   3.9004   3.9648
     3.9677   3.9918   4.0266   4.0683   4.0734   4.0986   4.1422   4.1588
     4.1674   4.1907   4.2040   4.2059   4.2272   4.2358   4.2442   4.2701
     4.2780   4.2942   4.3385   4.3568   4.3838   4.3928   4.4267   4.4421
     4.4514   4.4935   4.5198   4.6061   4.6219   4.6327   4.6363   4.6633
     4.6918   4.6976   4.7375   4.7608   4.8276   4.8289   4.8405   4.8508
     4.8788   4.9095   4.9276   4.9414   4.9620   4.9724   4.9837   4.9990
     5.0378   5.0466   5.0633   5.0882   5.1354   5.1419   5.1604   5.1931
     5.2013   5.2245   5.2383   5.2387   5.2622   5.2689   5.2874   5.3539
     5.3791   5.3898   5.4142   5.4508   5.4526   5.4536   5.4897   5.5110
     5.5352   5.5429   5.5768   5.6227   5.6275   5.6572   5.6752   5.6972
     5.7000   5.7107   5.8079   5.8243   5.8548   5.8652   5.8965   5.9398
     5.9593   5.9808   5.9956   5.9989   6.0530   6.0660   6.0669   6.0705
     6.0972   6.1085   6.1427   6.1521   6.1623   6.1676   6.1961   6.2143
     6.2210   6.2213   6.2839   6.3229   6.3287   6.3745   6.3753   6.4057
     6.4347   6.5195   6.5608   6.5810   6.5847   6.5919   6.8276   7.0631
     7.3798   7.6912   8.0608   8.4153   8.9281   9.2891   9.5702   9.8606
     9.8718  10.0902  10.2072  10.3143  10.3643  10.4598  10.6742  10.7283
    10.7897  10.8917  11.0333  11.1306  11.2359  11.2823  11.5722  11.6063
    11.7214  11.7565  11.8985  11.9043  12.2255  12.4558  12.6014  12.7295
    12.8884  13.0227  13.0517  13.1570  13.2142  13.3385  13.4553  13.5769
    13.8356  13.8714  13.8825  13.9136  14.4028  14.4099

          k = 0.4583 0.1443 0.0000 ( 27583 PWs)   bands (ev):

     0.3331   0.6379   0.6987   0.9788   1.0803   1.3799   1.6001   1.8464
     2.0786   2.2714   2.3060   2.3590   2.3682   2.4336   2.4613   2.4714
     2.4807   2.4997   2.5455   2.5733   2.6220   2.6594   2.6747   2.7227
     2.7802   2.7973   2.8115   2.8595   2.8874   2.9323   2.9383   2.9790
     3.0143   3.0691   3.0795   3.1258   3.1604   3.2007   3.2245   3.2393
     3.2676   3.2742   3.2746   3.3282   3.3343   3.3392   3.3674   3.3839
     3.4119   3.4218   3.4348   3.4617   3.4700   3.4764   3.4960   3.5087
     3.5316   3.5512   3.5684   3.5878   3.6230   3.6750   3.6998   3.7511
     3.7708   3.8157   3.8536   3.8763   3.8973   3.9149   3.9591   3.9938
     3.9948   4.0248   4.0548   4.0722   4.0728   4.1352   4.1455   4.1608
     4.1762   4.2031   4.2063   4.2131   4.2229   4.2262   4.2458   4.2463
     4.2669   4.2776   4.2987   4.3179   4.3305   4.3701   4.3806   4.4643
     4.4660   4.4882   4.5757   4.5986   4.6137   4.6409   4.6536   4.6600
     4.6840   4.6986   4.7195   4.7419   4.7758   4.8452   4.8508   4.8596
     4.8665   4.8749   4.8995   4.9258   4.9487   4.9866   4.9893   5.0081
     5.0356   5.0420   5.0660   5.1151   5.1158   5.1304   5.1489   5.1944
     5.2025   5.2107   5.2266   5.2341   5.2419   5.2611   5.2914   5.3205
     5.3305   5.3402   5.4085   5.4194   5.4290   5.4377   5.4493   5.4959
     5.5212   5.5357   5.5459   5.5985   5.6220   5.6321   5.6745   5.6913
     5.7056   5.7217   5.7452   5.7723   5.7858   5.8193   5.8359   5.9142
     5.9465   5.9558   5.9823   6.0105   6.0166   6.0248   6.0921   6.1040
     6.1082   6.1132   6.1455   6.1623   6.2052   6.2052   6.2600   6.2750
     6.2832   6.2973   6.3195   6.3648   6.3790   6.3892   6.4471   6.4601
     6.4984   6.5169   6.5996   6.6192   6.6300   6.6427   6.8543   7.0848
     7.4302   7.7312   8.1141   8.4530   8.7953   8.9362   9.0778   9.1197
     9.2794   9.4350   9.4446   9.8411  10.0122  10.1379  10.4073  10.4494
    10.7170  11.1102  11.2246  11.3202  11.4990  11.5990  11.7603  11.7672
    11.8738  12.0288  12.1876  12.2589  12.3868  12.6147  12.7645  12.7786
    12.9156  13.1301  13.1918  13.2289  13.3019  13.4517  13.6048  13.7377
    13.8590  14.0011  14.0372  14.1449  14.3394  14.4545

          k = 0.4583 0.2406 0.0000 ( 27580 PWs)   bands (ev):

     0.4900   0.7834   0.8244   1.0910   1.2051   1.4637   1.6938   1.8813
     2.1291   2.2342   2.3294   2.3449   2.3765   2.4122   2.4230   2.4282
     2.4839   2.5136   2.5647   2.5801   2.5881   2.5983   2.6208   2.7149
     2.7268   2.7430   2.7810   2.8147   2.8345   2.8556   2.8596   2.9373
     2.9568   3.0113   3.0804   3.0829   3.1308   3.1431   3.1965   3.2089
     3.2250   3.2284   3.2675   3.3245   3.3292   3.3733   3.3733   3.4097
     3.4347   3.4390   3.4732   3.4748   3.4963   3.5151   3.5383   3.5580
     3.5710   3.5765   3.6017   3.6252   3.6621   3.6962   3.7210   3.7344
     3.7459   3.7904   3.8493   3.9044   3.9165   3.9308   3.9784   3.9925
     4.0284   4.0391   4.0914   4.0970   4.1142   4.1297   4.1639   4.1650
     4.1783   4.1812   4.1995   4.2101   4.2187   4.2317   4.2373   4.2503
     4.2580   4.2678   4.2827   4.3281   4.3561   4.3720   4.4267   4.4296
     4.4625   4.4631   4.5662   4.5772   4.5910   4.6080   4.6522   4.6669
     4.6844   4.7037   4.7457   4.7790   4.7975   4.8282   4.8301   4.8586
     4.8860   4.8884   4.8947   4.9464   4.9648   4.9813   5.0147   5.0229
     5.0425   5.0588   5.0734   5.1336   5.1353   5.1487   5.1612   5.1619
     5.2044   5.2072   5.2286   5.2392   5.2425   5.2463   5.2835   5.3121
     5.3447   5.3558   5.3953   5.3990   5.4319   5.4343   5.4564   5.4744
     5.4746   5.5323   5.5361   5.5644   5.5680   5.6219   5.6453   5.6473
     5.6858   5.7430   5.7495   5.7628   5.7724   5.7981   5.8329   5.8765
     5.9108   5.9465   5.9687   5.9775   6.0564   6.0734   6.0890   6.1072
     6.1077   6.1402   6.1575   6.1653   6.2139   6.2190   6.3310   6.3375
     6.3622   6.3651   6.3833   6.3851   6.4164   6.4528   6.4785   6.5016
     6.5364   6.5482   6.6348   6.6372   6.6818   6.6918   6.9341   7.1469
     7.5254   7.8062   8.1133   8.1926   8.2981   8.4240   8.5150   8.6488
     8.6701   8.9665   9.0637   9.2985   9.3147   9.6973   9.8241  10.2245
    10.2644  10.5521  10.6809  11.0862  11.4507  11.5488  11.8310  12.0004
    12.2785  12.3560  12.7414  12.7791  12.8929  12.9051  13.0226  13.0938
    13.2484  13.2935  13.4404  13.4708  13.5231  13.7607  13.8015  13.9334
    14.0476  14.1217  14.1550  14.2435  14.5556  14.6061

          k = 0.4583 0.3368 0.0000 ( 27527 PWs)   bands (ev):

     0.7194   0.9952   1.0079   1.2570   1.3854   1.5912   1.8290   1.9455
     2.2125   2.2302   2.2906   2.3019   2.3253   2.3580   2.3991   2.4063
     2.4263   2.4604   2.4858   2.5377   2.5758   2.5987   2.6352   2.6614
     2.6942   2.7166   2.7451   2.7602   2.7758   2.8066   2.8371   2.8609
     2.9118   2.9197   3.0220   3.0566   3.0677   3.0852   3.1109   3.1803
     3.1989   3.2125   3.2234   3.2629   3.3166   3.3476   3.3607   3.3759
     3.4138   3.4389   3.4643   3.4860   3.5063   3.5187   3.5391   3.5921
     3.5983   3.6211   3.6245   3.6260   3.6934   3.7151   3.7190   3.7305
     3.7770   3.8107   3.8253   3.8557   3.8751   3.9226   3.9246   4.0057
     4.0126   4.0393   4.0686   4.0858   4.0979   4.1203   4.1352   4.1425
     4.1624   4.1711   4.1972   4.1988   4.1998   4.2141   4.2309   4.2319
     4.2388   4.2785   4.3153   4.3447   4.3626   4.3895   4.4067   4.4345
     4.4843   4.4913   4.5226   4.5408   4.5501   4.6397   4.6476   4.6860
     4.6992   4.7447   4.7651   4.8059   4.8113   4.8236   4.8723   4.8739
     4.8800   4.9186   4.9535   4.9914   4.9931   5.0342   5.0607   5.0784
     5.0866   5.1213   5.1514   5.1554   5.1855   5.1902   5.1909   5.2221
     5.2322   5.2585   5.2645   5.2887   5.3164   5.3274   5.3312   5.3762
     5.3812   5.3953   5.4132   5.4462   5.4578   5.4593   5.4951   5.5090
     5.5187   5.5555   5.5773   5.5939   5.6047   5.6455   5.6584   5.6788
     5.7124   5.7299   5.7693   5.7766   5.8072   5.8106   5.8583   5.8600
     5.9023   5.9471   5.9581   5.9633   6.0530   6.0731   6.1084   6.1230
     6.1394   6.1502   6.1819   6.1859   6.2335   6.2469   6.2977   6.3454
     6.3764   6.3865   6.3943   6.4092   6.4485   6.4781   6.4781   6.5174
     6.5466   6.5652   6.6060   6.6373   6.6971   6.7464   7.0627   7.2576
     7.5292   7.5833   7.6862   7.8154   7.8494   7.8704   8.0012   8.2137
     8.3495   8.4064   8.6487   8.7882   9.1464   9.2313   9.4964   9.5762
    10.0040  10.2982  10.3937  10.5645  10.9349  11.2966  11.6654  11.9309
    12.0633  12.3146  12.8733  13.1006  13.1796  13.2274  13.2591  13.3788
    13.5034  13.7661  13.9329  13.9391  14.0114  14.0690  14.2315  14.3139
    14.3736  14.3957  14.4229  14.7668  14.9150  14.9192

          k = 0.4583 0.4330 0.0000 ( 27524 PWs)   bands (ev):

     1.0131   1.2410   1.2640   1.4720   1.6100   1.7607   1.9944   2.0411
     2.0650   2.0841   2.1754   2.2537   2.2539   2.2722   2.2973   2.3271
     2.4027   2.4253   2.4503   2.5020   2.5440   2.5949   2.5974   2.6771
     2.6811   2.6944   2.7599   2.7748   2.7762   2.8073   2.8325   2.8377
     2.8537   2.8696   2.9300   2.9463   2.9961   3.0356   3.0824   3.0844
     3.1369   3.1783   3.1825   3.2422   3.2740   3.3072   3.3116   3.3143
     3.3603   3.3846   3.4237   3.4608   3.4793   3.5336   3.5473   3.5557
     3.6221   3.6273   3.6412   3.6611   3.6914   3.7078   3.7385   3.7627
     3.7795   3.8160   3.8362   3.8387   3.8624   3.8700   3.9442   3.9453
     3.9552   3.9988   4.0082   4.0266   4.0820   4.1114   4.1158   4.1401
     4.1464   4.1517   4.1688   4.1854   4.1981   4.2165   4.2289   4.2327
     4.2764   4.2881   4.2985   4.3106   4.3689   4.3805   4.3888   4.4334
     4.4538   4.4720   4.4946   4.5213   4.5235   4.6015   4.6546   4.6771
     4.7063   4.7098   4.7590   4.7698   4.8298   4.8758   4.9087   4.9277
     4.9633   4.9657   4.9925   5.0062   5.0293   5.0721   5.0993   5.1464
     5.1483   5.1583   5.1954   5.2237   5.2459   5.2525   5.2835   5.3125
     5.3245   5.3284   5.3554   5.3616   5.3872   5.4124   5.4260   5.4271
     5.4773   5.4823   5.5099   5.5524   5.5848   5.5931   5.6084   5.6326
     5.6369   5.6382   5.6652   5.6939   5.6944   5.7358   5.7457   5.7684
     5.7739   5.7970   5.8219   5.8690   5.8719   5.9257   5.9281   5.9438
     5.9478   5.9750   5.9824   6.0278   6.0329   6.0716   6.1346   6.1599
     6.1765   6.1903   6.2050   6.2081   6.2164   6.2565   6.2817   6.2865
     6.2970   6.3426   6.3544   6.3947   6.4003   6.4537   6.4615   6.4892
     6.4934   6.5403   6.5434   6.6071   6.7426   6.8481   6.9992   7.0642
     7.1196   7.2420   7.3240   7.3246   7.3416   7.5135   7.5806   7.8222
     8.0153   8.2148   8.2562   8.5500   8.8002   9.0922   9.1201   9.4482
     9.6589   9.9826  10.1754  10.4915  10.6180  10.9127  11.3089  11.6359
    12.0813  12.4921  12.5813  12.9116  13.0218  13.2740  13.4195  13.6768
    13.7495  14.1162  14.2004  14.2417  14.4638  14.5997  14.6715  14.7186
    14.8900  15.0053  15.1058  15.1923  15.2973  15.3854

          k = 0.4583 0.5292 0.0000 ( 27488 PWs)   bands (ev):

     1.3567   1.5098   1.5733   1.7261   1.7269   1.7934   1.8571   1.8950
     1.9649   1.9991   2.0883   2.1578   2.1664   2.1763   2.2775   2.3046
     2.3495   2.4502   2.4522   2.5109   2.5580   2.5812   2.5933   2.6143
     2.6541   2.7198   2.7199   2.7477   2.7782   2.7939   2.8125   2.8509
     2.8555   2.8987   2.9209   2.9296   2.9842   2.9975   3.0238   3.0593
     3.0934   3.1200   3.1379   3.2088   3.2372   3.2818   3.2843   3.3002
     3.3263   3.3366   3.4167   3.4278   3.4632   3.4790   3.5268   3.5335
     3.5802   3.6090   3.6326   3.6480   3.6791   3.7092   3.7494   3.7620
     3.7761   3.8140   3.8189   3.8736   3.8739   3.9206   3.9328   3.9342
     3.9836   3.9865   4.0058   4.0218   4.0522   4.0645   4.1049   4.1141
     4.1299   4.1571   4.1664   4.1755   4.1787   4.1942   4.2152   4.2567
     4.2612   4.2654   4.2961   4.3225   4.3595   4.3697   4.3791   4.3997
     4.4014   4.4515   4.5085   4.5382   4.5485   4.5688   4.5791   4.6450
     4.6875   4.7213   4.7490   4.8256   4.8423   4.9101   4.9108   4.9354
     4.9564   4.9731   5.0193   5.0300   5.0565   5.0697   5.1384   5.1520
     5.1817   5.2159   5.2317   5.2497   5.2650   5.2856   5.2995   5.3200
     5.3220   5.3522   5.4066   5.4168   5.4191   5.4242   5.4786   5.5473
     5.5559   5.5769   5.6004   5.6595   5.6607   5.6763   5.7094   5.7249
     5.7290   5.7474   5.7609   5.8051   5.8215   5.8669   5.8825   5.8891
     5.9167   5.9408   5.9429   5.9576   5.9826   6.0112   6.0284   6.0517
     6.0726   6.0859   6.1010   6.1223   6.1293   6.1546   6.1699   6.1784
     6.2139   6.2350   6.2391   6.2597   6.2743   6.2767   6.2828   6.2945
     6.3193   6.3460   6.3474   6.3797   6.3881   6.3963   6.4045   6.4093
     6.4634   6.4701   6.4869   6.5289   6.5940   6.6049   6.6690   6.7171
     6.7856   6.7994   6.8685   6.9980   7.1346   7.2656   7.3381   7.6221
     7.8920   8.0545   8.0796   8.4062   8.7455   8.9185   8.9784   9.2564
     9.6860   9.8790   9.9776  10.2000  10.7058  10.9388  10.9853  11.2425
    12.2163  12.3724  12.5408  12.7438  13.0801  13.3225  13.4662  13.8410
    14.1443  14.1701  14.2821  14.5491  14.6911  14.8394  14.9108  14.9284
    15.0359  15.1125  15.2618  15.3191  15.3583  15.4907

     the Fermi energy is     8.2691 ev

!    total energy              =   -3673.17834899 Ry
     estimated scf accuracy    <       0.00000089 Ry
     smearing contrib. (-TS)   =       0.04741624 Ry
     internal energy E=F+TS    =   -3673.22576523 Ry

     The total energy is F=E-TS. E is the sum of the following terms:
     one-electron contribution =  -16949.66346524 Ry
     hartree contribution      =    8849.22499796 Ry
     xc contribution           =   -1775.50330876 Ry
     ewald contribution        =    6202.71601081 Ry

     convergence has been achieved in  19 iterations

     negative rho (up, down):  9.786E-01 0.000E+00

     Forces acting on atoms (cartesian axes, Ry/au):

     atom    1 type  1   force =     0.00000000   -0.00166061    0.02663203
     atom    2 type  1   force =     0.00000000   -0.00166048    0.02663144
     atom    3 type  1   force =     0.00000009    0.00342838   -0.01657999
     atom    4 type  1   force =    -0.00000009    0.00342838   -0.01657999
     atom    5 type  1   force =     0.00000000   -0.00166651   -0.00972788
     atom    6 type  1   force =     0.00000000   -0.00166619   -0.00972750
     atom    7 type  1   force =     0.00000000    0.00057259   -0.00393257
     atom    8 type  1   force =     0.00000000    0.00057244   -0.00393258
     atom    9 type  1   force =    -0.00000001   -0.00054520    0.00451428
     atom   10 type  1   force =     0.00000001   -0.00054520    0.00451428
     atom   11 type  1   force =     0.00000000    0.00029019   -0.00089898
     atom   12 type  1   force =     0.00000000    0.00028995   -0.00089894
     atom   13 type  1   force =    -0.00000030   -0.00045370   -0.00065044
     atom   14 type  1   force =     0.00000030   -0.00045370   -0.00065044
     atom   15 type  1   force =     0.00000000    0.00019510   -0.00063532
     atom   16 type  1   force =    -0.00000018   -0.00018413    0.00034734
     atom   17 type  1   force =     0.00000018   -0.00018413    0.00034734
     atom   18 type  1   force =     0.00000000    0.00019520   -0.00063542
     atom   19 type  1   force =     0.00000000    0.00018586   -0.00034989
     atom   20 type  1   force =     0.00000000    0.00018572   -0.00034988
     atom   21 type  1   force =    -0.00000034   -0.00019451    0.00063346
     atom   22 type  1   force =     0.00000034   -0.00019451    0.00063346
     atom   23 type  1   force =     0.00000000    0.00045434    0.00065580
     atom   24 type  1   force =     0.00000000    0.00045435    0.00065578
     atom   25 type  1   force =    -0.00000008   -0.00029007    0.00090214
     atom   26 type  1   force =     0.00000008   -0.00029007    0.00090214
     atom   27 type  1   force =    -0.00000006   -0.00057080    0.00392562
     atom   28 type  1   force =     0.00000006   -0.00057080    0.00392562
     atom   29 type  1   force =     0.00000000    0.00054631   -0.00452076
     atom   30 type  1   force =     0.00000000    0.00054625   -0.00452079
     atom   31 type  1   force =     0.00000000   -0.00342673    0.01657551
     atom   32 type  1   force =     0.00000000   -0.00342717    0.01657546
     atom   33 type  1   force =     0.00000007    0.00166511    0.00972389
     atom   34 type  1   force =    -0.00000007    0.00166511    0.00972389
     atom   35 type  1   force =    -0.00000054    0.00165462   -0.02661406
     atom   36 type  1   force =     0.00000054    0.00165462   -0.02661406

     Total force =     0.067352     Total SCF correction =     0.002934
 
     init_run     :     23.89s CPU     12.56s WALL (       1 calls)
     electrons    :   1823.10s CPU    934.63s WALL (       1 calls)
     forces       :      3.73s CPU      1.97s WALL (       1 calls)

     Called by init_run:
     wfcinit      :     23.28s CPU     11.99s WALL (       1 calls)
     potinit      :      0.17s CPU      0.13s WALL (       1 calls)
     hinit0       :      0.15s CPU      0.12s WALL (       1 calls)

     Called by electrons:
     c_bands      :   1746.71s CPU    894.99s WALL (      20 calls)
     sum_band     :     75.09s CPU     38.92s WALL (      20 calls)
     v_of_rho     :      0.65s CPU      0.35s WALL (      20 calls)
     newd         :      0.42s CPU      0.25s WALL (      20 calls)
     mix_rho      :      0.20s CPU      0.11s WALL (      20 calls)

     Called by c_bands:
     init_us_2    :      0.83s CPU      0.44s WALL (    1512 calls)
     cegterg      :   1738.90s CPU    890.89s WALL (     720 calls)

     Called by *egterg:
     cdiaghg      :    509.59s CPU    259.41s WALL (    4342 calls)
     h_psi        :    360.61s CPU    187.18s WALL (    4414 calls)
     s_psi        :      6.95s CPU      3.53s WALL (    4414 calls)
     g_psi        :      0.15s CPU      0.08s WALL (    3658 calls)

     Called by h_psi:
     h_psi:calbec :     21.51s CPU     11.70s WALL (    4414 calls)
     vloc_psi     :    330.86s CPU    171.26s WALL (    4414 calls)
     add_vuspsi   :      8.04s CPU      4.09s WALL (    4414 calls)

     General routines
     calbec       :     31.43s CPU     17.10s WALL (    5278 calls)
     fft          :      0.81s CPU      0.43s WALL (     270 calls)
     ffts         :      0.05s CPU      0.03s WALL (      40 calls)
     fftw         :    388.18s CPU    197.96s WALL (  941594 calls)
     interpolate  :      0.08s CPU      0.04s WALL (      20 calls)
 
     Parallel routines
     fft_scatt_xy :      9.51s CPU      5.88s WALL (  941904 calls)
     fft_scatt_yz :    280.64s CPU    144.87s WALL (  941904 calls)
 
     PWSCF        :  30m51.15s CPU  15m50.88s WALL

 
   This run was terminated on:   2:52:13   8Sep2021            

=------------------------------------------------------------------------------=
   JOB DONE.
=------------------------------------------------------------------------------=
